
 Primary working directories    : /scr/yuriaoto/job.022847/molpro.s9aSkcNLpo
 Secondary working directories  : /scr/yuriaoto/job.022847/molpro.s9aSkcNLpo
 Wavefunction directory         : /scr/yuriaoto/job.022847/
 Main file repository           : /scr/yuriaoto/job.022847/molpro.s9aSkcNLpo/

 id        : yuriaoto

 Nodes             nprocs
 t-rex.ufabc.int.br    1

 Using customized tuning parameters: mindgm=8; mindgv=16; mindgc=1; mindgr=1; noblas=0; minvec=7
 default implementation of scratch files=df  


 Variables initialized (933), CPU time= 0.01 sec
 ***,
 memory,40,m
 gprint,orbital,basis,civector
 gthresh,thrprint=0,printci=0.0
 file,3,wfu.dat,old
 
 {cisd,CC_NORM_MAX=10000.0
 thresh,printci=0.0,ENERGY=1.0E-10,COEFF=1.0E-12
 print,ref=1
 core,0
 wf,16,1,0;
 }
 
 Commands  initialized (760), CPU time= 0.02 sec, 617 directives.
 Default parameters read. Elapsed time= 0.05 sec

 Checking input...
 Passed
1


                                         ***  PROGRAM SYSTEM MOLPRO  ***
                                       Copyright, TTI GmbH Stuttgart, 2015
                                    Version 2019.2 linked Abr  7 2019 15:10:35


 **********************************************************************************************************************************
 LABEL *                                                                                 
  64 bit serial version                                                                  DATE: 23-Mar-20          TIME: 15:35:42  
 **********************************************************************************************************************************

 SHA1:             3a8a58c585c929645742fb5a1b7541a4ad1da699
 **********************************************************************************************************************************


 THRESHOLDS:

 ZERO    =  1.00D-12  ONEINT  =  1.00D-12  TWOINT  =  1.00D-11  PREFAC  =  1.00D-14  XXXXXX  =  1.00D-09  EORDER  =  1.00D-04
 ENERGY  =  0.00D+00  ETEST   =  0.00D+00  EDENS   =  0.00D+00  THRDEDEF=  1.00D-06  GRADIENT=  1.00D-02  STEP    =  1.00D-03
 ORBITAL =  1.00D-05  CIVEC   =  1.00D-05  COEFF   =  1.00D-04  PRINTCI =  0.00D+00  PUNCHCI =  9.90D+01  OPTGRAD =  3.00D-04
 OPTENERG=  1.00D-06  OPTSTEP =  3.00D-04  THRGRAD =  1.00D-10  COMPRESS=  1.00D-11  VARMIN  =  1.00D-07  VARMAX  =  1.00D-03
 THRDOUB =  0.00D+00  THRDIV  =  1.00D-05  THRRED  =  1.00D-07  THRPSP  =  1.00D+00  THRDC   =  1.00D-10  THRCS   =  1.00D-10
 THRNRM  =  1.00D-08  THREQ   =  0.00D+00  THRDE   =  1.00D+00  THRREF  =  1.00D-05  SPARFAC =  1.00D+00  THRDLP  =  1.00D-07
 THRDIA  =  1.00D-10  THRDLS  =  1.00D-07  THRGPS  =  0.00D+00  THRKEX  =  0.00D+00  THRDIS  =  2.00D-01  THRVAR  =  1.00D-10
 THRLOC  =  1.00D-06  THRGAP  =  1.00D-06  THRLOCT = -1.00D+00  THRGAPT = -1.00D+00  THRORB  =  1.00D-06  THRMLTP =  0.00D+00
 THRCPQCI=  1.00D-10  KEXTA   =  0.00D+00  THRCOARS=  0.00D+00  SYMTOL  =  1.00D-06  GRADTOL =  1.00D-06  THROVL  =  1.00D-08
 THRORTH =  1.00D-08  GRID    =  1.00D-06  GRIDMAX =  1.00D-03  DTMAX   =  0.00D+00  THROCCDE=  1.00D-01  THROCCDE=  1.00D-01
 THRPRINT=  0.00D+00


 Variable memory set to   40000000 words,  buffer space 



 Permanent file  3  wfu.dat  assigned.  Implementation=df    Size= 14.20 MB


 PROGRAM * RESTART 


 Reading variables from file 3

 _FNUC           =      0.00000000
 _BASIS          =    CC-PVDZ
 _NELEC          =     16.00000000
 _PROGRAM        =    RHF-SCF
 _DMZ            =      0.00000000
 _DMX_SCF        =      0.00000000
 _DMY_SCF        =      0.00000000
 _DMZ_SCF        =      0.00000000
 _HOMO           =      1.80000000
 _EHOMO          =     -0.90875099
 _LUMO           =      2.10000000
 _ELUMO          =      1.32506671
 _ENERGY         =    -22.84127344
 _ENERGY_METHOD  =    RHF
 _ENERGY_BASIS   =    cc-pVDZ
 _ENUC           =     16.08323531
 _EPS1(1:5)      =     -0.91973204     1.32506671     2.52435041     2.52435041     2.52440812
 _EPS2(1:5)      =     -0.91593984     1.37330839     2.52434859     2.52437180     2.52443669
 _EPS3(1:5)      =     -0.91593984     1.37330839     2.52434859     2.52437180     2.52443669
 _EPS4(1:5)      =     -0.91228103     1.42287575     2.52435723     2.52439641     2.52445206
 _EPS5(1:5)      =     -0.91593984     1.37330839     2.52434859     2.52437180     2.52443669
 _EPS6(1:5)      =     -0.91228103     1.42287575     2.52435723     2.52439641     2.52445206
 _EPS7(1:5)      =     -0.91228103     1.42287575     2.52435723     2.52439641     2.52445206
 _EPS8(1:5)      =     -0.90875099     1.47382765     2.52439461     2.52439461     2.52446567
 _IPROC_MPP      =      0.00000000
 _IPROC_MPPX     =      0.00000000
 _ORBITAL        =   2100.30000000
 _STATUS         =      1.00000000
 _LASTORB        =    RHF
 _OUTPUT         =    /scr/yuriaoto/job.022846/RHF.xml
 _PGROUP         =    D2h 
 _TIME           =    15:35:31
 R               =      1.50000000

 Geometry written to block  1 of record 700


 **********************************************************************************************************************************
 DATASETS  * FILE   NREC   LENGTH (MB)   RECORD NAMES
              3       5       14.89       500      610      700     1000     2100   
                                          VAR    BASINP    GEOM     BASIS     RHF  

 PROGRAMS   *        TOTAL   RESTART
 CPU TIMES  *         0.14      0.02
 REAL TIME  *         0.17 SEC
 DISK USED  *        26.99 MB
 **********************************************************************************************************************************


 Recomputing integrals since basis changed


 Using spherical harmonics

 Library entry HE     S cc-pVDZ              selected for orbital group  1
 Library entry HE     P cc-pVDZ              selected for orbital group  1


 PROGRAM * SEWARD (Integral evaluation for generally contracted gaussian basis sets)     Author: Roland Lindh, 1990

 Geometry written to block  1 of record 700


 Point group  D2h 



 ATOMIC COORDINATES

 NR  ATOM    CHARGE       X              Y              Z

   1  HE1     2.00    2.834589187    2.834589187    2.834589187
   2  HE2     2.00   -2.834589187   -2.834589187    2.834589187
   3  HE3     2.00    2.834589187   -2.834589187    2.834589187
   4  HE4     2.00   -2.834589187    2.834589187    2.834589187
   5  HE5     2.00    2.834589187    2.834589187   -2.834589187
   6  HE6     2.00   -2.834589187   -2.834589187   -2.834589187
   7  HE7     2.00    2.834589187   -2.834589187   -2.834589187
   8  HE8     2.00   -2.834589187    2.834589187   -2.834589187


 BASIS DATA

   Nr Sym  Nuc  Type         Exponents   Contraction coefficients

    1.1 Ag    1  1s          38.360000     0.023809    0.000000
    2.1 Ag    2  1s           5.770000     0.154891    0.000000
              3  1s           1.240000     0.469987    0.000000
              4  1s           0.297600     0.513027    1.000000
              5  1s    
              6  1s    
              7  1s    
              8  1s    
    3.1 Ag    1  2px          1.275000     1.000000
              2 -2px   
              3  2px   
              4 -2px   
              5  2px   
              6 -2px   
              7  2px   
              8 -2px   
    4.1 Ag    1  2py          1.275000     1.000000
              2 -2py   
              3 -2py   
              4  2py   
              5  2py   
              6 -2py   
              7 -2py   
              8  2py   
    5.1 Ag    1  2pz          1.275000     1.000000
              2  2pz   
              3  2pz   
              4  2pz   
              5 -2pz   
              6 -2pz   
              7 -2pz   
              8 -2pz   
    1.2 B3u   1  1s          38.360000     0.023809    0.000000
    2.2 B3u   2 -1s           5.770000     0.154891    0.000000
              3  1s           1.240000     0.469987    0.000000
              4 -1s           0.297600     0.513027    1.000000
              5  1s    
              6 -1s    
              7  1s    
              8 -1s    
    3.2 B3u   1  2px          1.275000     1.000000
              2  2px   
              3  2px   
              4  2px   
              5  2px   
              6  2px   
              7  2px   
              8  2px   
    4.2 B3u   1  2py          1.275000     1.000000
              2  2py   
              3 -2py   
              4 -2py   
              5  2py   
              6  2py   
              7 -2py   
              8 -2py   
    5.2 B3u   1  2pz          1.275000     1.000000
              2 -2pz   
              3  2pz   
              4 -2pz   
              5 -2pz   
              6  2pz   
              7 -2pz   
              8  2pz   
    1.3 B2u   1  1s          38.360000     0.023809    0.000000
    2.3 B2u   2 -1s           5.770000     0.154891    0.000000
              3 -1s           1.240000     0.469987    0.000000
              4  1s           0.297600     0.513027    1.000000
              5  1s    
              6 -1s    
              7 -1s    
              8  1s    
    3.3 B2u   1  2py          1.275000     1.000000
              2  2py   
              3  2py   
              4  2py   
              5  2py   
              6  2py   
              7  2py   
              8  2py   
    4.3 B2u   1  2px          1.275000     1.000000
              2  2px   
              3 -2px   
              4 -2px   
              5  2px   
              6  2px   
              7 -2px   
              8 -2px   
    5.3 B2u   1  2pz          1.275000     1.000000
              2 -2pz   
              3 -2pz   
              4  2pz   
              5 -2pz   
              6  2pz   
              7  2pz   
              8 -2pz   
    1.4 B1g   1  1s          38.360000     0.023809    0.000000
    2.4 B1g   2  1s           5.770000     0.154891    0.000000
              3 -1s           1.240000     0.469987    0.000000
              4 -1s           0.297600     0.513027    1.000000
              5  1s    
              6  1s    
              7 -1s    
              8 -1s    
    3.4 B1g   1  2py          1.275000     1.000000
              2 -2py   
              3  2py   
              4 -2py   
              5  2py   
              6 -2py   
              7  2py   
              8 -2py   
    4.4 B1g   1  2px          1.275000     1.000000
              2 -2px   
              3 -2px   
              4  2px   
              5  2px   
              6 -2px   
              7 -2px   
              8  2px   
    5.4 B1g   1  2pz          1.275000     1.000000
              2  2pz   
              3 -2pz   
              4 -2pz   
              5 -2pz   
              6 -2pz   
              7  2pz   
              8  2pz   
    1.5 B1u   1  1s          38.360000     0.023809    0.000000
    2.5 B1u   2  1s           5.770000     0.154891    0.000000
              3  1s           1.240000     0.469987    0.000000
              4  1s           0.297600     0.513027    1.000000
              5 -1s    
              6 -1s    
              7 -1s    
              8 -1s    
    3.5 B1u   1  2pz          1.275000     1.000000
              2  2pz   
              3  2pz   
              4  2pz   
              5  2pz   
              6  2pz   
              7  2pz   
              8  2pz   
    4.5 B1u   1  2px          1.275000     1.000000
              2 -2px   
              3  2px   
              4 -2px   
              5 -2px   
              6  2px   
              7 -2px   
              8  2px   
    5.5 B1u   1  2py          1.275000     1.000000
              2 -2py   
              3 -2py   
              4  2py   
              5 -2py   
              6  2py   
              7  2py   
              8 -2py   
    1.6 B2g   1  1s          38.360000     0.023809    0.000000
    2.6 B2g   2 -1s           5.770000     0.154891    0.000000
              3  1s           1.240000     0.469987    0.000000
              4 -1s           0.297600     0.513027    1.000000
              5 -1s    
              6  1s    
              7 -1s    
              8  1s    
    3.6 B2g   1  2pz          1.275000     1.000000
              2 -2pz   
              3  2pz   
              4 -2pz   
              5  2pz   
              6 -2pz   
              7  2pz   
              8 -2pz   
    4.6 B2g   1  2px          1.275000     1.000000
              2  2px   
              3  2px   
              4  2px   
              5 -2px   
              6 -2px   
              7 -2px   
              8 -2px   
    5.6 B2g   1  2py          1.275000     1.000000
              2  2py   
              3 -2py   
              4 -2py   
              5 -2py   
              6 -2py   
              7  2py   
              8  2py   
    1.7 B3g   1  1s          38.360000     0.023809    0.000000
    2.7 B3g   2 -1s           5.770000     0.154891    0.000000
              3 -1s           1.240000     0.469987    0.000000
              4  1s           0.297600     0.513027    1.000000
              5 -1s    
              6  1s    
              7  1s    
              8 -1s    
    3.7 B3g   1  2pz          1.275000     1.000000
              2 -2pz   
              3 -2pz   
              4  2pz   
              5  2pz   
              6 -2pz   
              7 -2pz   
              8  2pz   
    4.7 B3g   1  2py          1.275000     1.000000
              2  2py   
              3  2py   
              4  2py   
              5 -2py   
              6 -2py   
              7 -2py   
              8 -2py   
    5.7 B3g   1  2px          1.275000     1.000000
              2  2px   
              3 -2px   
              4 -2px   
              5 -2px   
              6 -2px   
              7  2px   
              8  2px   
    1.8 Au    1  1s          38.360000     0.023809    0.000000
    2.8 Au    2  1s           5.770000     0.154891    0.000000
              3 -1s           1.240000     0.469987    0.000000
              4 -1s           0.297600     0.513027    1.000000
              5 -1s    
              6 -1s    
              7  1s    
              8  1s    
    3.8 Au    1  2pz          1.275000     1.000000
              2  2pz   
              3 -2pz   
              4 -2pz   
              5  2pz   
              6  2pz   
              7 -2pz   
              8 -2pz   
    4.8 Au    1  2py          1.275000     1.000000
              2 -2py   
              3  2py   
              4 -2py   
              5 -2py   
              6  2py   
              7 -2py   
              8  2py   
    5.8 Au    1  2px          1.275000     1.000000
              2 -2px   
              3 -2px   
              4  2px   
              5 -2px   
              6  2px   
              7  2px   
              8 -2px   

 NUCLEAR CHARGE:                   16
 NUMBER OF PRIMITIVE AOS:          56
 NUMBER OF SYMMETRY AOS:           56
 NUMBER OF CONTRACTIONS:           40   (    5Ag  +    5B3u +    5B2u +    5B1g +    5B1u +    5B2g +    5B3g +    5Au  )
 NUMBER OF CORE ORBITALS:           0   (    0Ag  +    0B3u +    0B2u +    0B1g +    0B1u +    0B2g +    0B3g +    0Au  )
 NUMBER OF VALENCE ORBITALS:        8   (    1Ag  +    1B3u +    1B2u +    1B1g +    1B1u +    1B2g +    1B3g +    1Au  )


 NUCLEAR REPULSION ENERGY   16.08323531

 Eigenvalues of metric

         1 0.114E+00 0.100E+01 0.100E+01 0.100E+01 0.192E+01
         2 0.112E+00 0.100E+01 0.100E+01 0.100E+01 0.190E+01
         3 0.112E+00 0.100E+01 0.100E+01 0.100E+01 0.190E+01
         4 0.110E+00 0.100E+01 0.100E+01 0.100E+01 0.188E+01
         5 0.112E+00 0.100E+01 0.100E+01 0.100E+01 0.190E+01
         6 0.110E+00 0.100E+01 0.100E+01 0.100E+01 0.188E+01
         7 0.110E+00 0.100E+01 0.100E+01 0.100E+01 0.188E+01
         8 0.108E+00 0.100E+01 0.100E+01 0.100E+01 0.186E+01


 Contracted 2-electron integrals neglected if value below      1.0D-11
 AO integral compression algorithm  1   Integral accuracy      1.0D-11

     0.786 MB (compressed) written to integral file ( 77.0%)


 NUMBER OF SORTED TWO-ELECTRON INTEGRALS:      46110.     BUFFER LENGTH:  32768
 NUMBER OF SEGMENTS:   1  SEGMENT LENGTH:      46110      RECORD LENGTH: 524288

 Memory used in sort:       0.60 MW

 SORT1 READ      154112. AND WROTE       46110. INTEGRALS IN      1 RECORDS. CPU TIME:     0.00 SEC, REAL TIME:     0.01 SEC
 SORT2 READ       46110. AND WROTE       46110. INTEGRALS IN      3 RECORDS. CPU TIME:     0.05 SEC, REAL TIME:     0.05 SEC

 FILE SIZES:   FILE 1:    30.9 MBYTE,  FILE 4:     4.2 MBYTE,   TOTAL:     35.1 MBYTE

 OPERATOR DM      FOR CENTER  0  COORDINATES:    0.000000    0.000000    0.000000


 **********************************************************************************************************************************
 DATASETS  * FILE   NREC   LENGTH (MB)   RECORD NAMES
              1      19       30.36       500      700      610      900      950      970     1000      129      960     1100   
                                          VAR     GEOM    BASINP   SYMINP    ZMAT    AOBASIS   BASIS     P2S    ABASIS      S 
                                         1400     1410     1200     1210     1080     1600     1650     1300     1700   
                                           T        V       H0       H01     AOSYM     SMH    MOLCAS    ERIS     OPER   

              3       5       14.89       500      610      700     1000     2100   
                                          VAR    BASINP    GEOM     BASIS     RHF  

 PROGRAMS   *        TOTAL       INT   RESTART
 CPU TIMES  *         0.41      0.27      0.02
 REAL TIME  *         0.58 SEC
 DISK USED  *        50.37 MB
 **********************************************************************************************************************************


 PROGRAM * CISD (Closed-shell CI(SD))     Authors: C. Hampel, H.-J. Werner, 1991, M. Deegan, P.J. Knowles, 1992


 Input parameters for THRESH:

 ENERGY   =    1.00D-10
 COEFF    =    1.00D-12
 PRINTCI  =    0.000000
 THRPRINT =    0.000000

 Convergence thresholds:  THRVAR = 1.00D-24  THRDEN = 1.00D-10

 Number of closed-shell orbitals:   8 (   1   1   1   1   1   1   1   1 )
 Number of external orbitals:      32 (   4   4   4   4   4   4   4   4 )

 Molecular orbitals read from record     2100.3  Type=RHF/CANONICAL (state 1.1)

 Number of N-1 electron functions:               8
 Number of N-2 electron functions:              36
 Number of singly external CSFs:                32
 Number of doubly external CSFs:              4224
 Total number of CSFs:                        4257

 Length of J-op  integral file:               0.00 MB
 Length of K-op  integral file:               0.04 MB

 Integral transformation finished. Total CPU:   0.01 sec, npass=  1  Memory used:   0.07 MW

 Reference energy:                    -22.84127344

 MP2 singlet pair energy:              -0.20665136
 MP2 triplet pair energy:              -0.00005958
 MP2 correlation energy:               -0.20671094
 MP2 total energy:                    -23.04798438

 SCS-MP2 correlation energy:           -0.24801871   (PS=  1.200000  PT=  0.333333)
 SCS-MP2 total energy:                -23.08929215

 ITER.      SQ.NORM     CORR.ENERGY   TOTAL ENERGY   ENERGY CHANGE        DEN1      VAR(S)    VAR(P)  DIIS     TIME  TIME/IT
   1      1.04989041    -0.24692760   -23.08820104    -0.04021666    -0.03421829  0.26D-05  0.11D-02  1  1     0.03     0.01
   2      1.05272787    -0.24740905   -23.08868249    -0.00048145    -0.00629616  0.25D-06  0.15D-05  2  2     0.04     0.01
   3      1.05296387    -0.24759265   -23.08886610    -0.00018360    -0.00044905  0.33D-09  0.94D-10  3  3     0.05     0.01
   4      1.05293044    -0.24759387   -23.08886731    -0.00000122     0.00007462  0.27D-11  0.13D-11  4  4     0.05     0.01
   5      1.05292772    -0.24759390   -23.08886734    -0.00000003     0.00000608  0.12D-12  0.49D-13  5  5     0.06     0.01
   6      1.05292774    -0.24759390   -23.08886734    -0.00000000    -0.00000005  0.44D-15  0.73D-15  6  6     0.07     0.01
   7      1.05292780    -0.24759390   -23.08886734    -0.00000000    -0.00000012  0.42D-16  0.14D-16  6  1     0.08     0.01
   8      1.05292780    -0.24759390   -23.08886734    -0.00000000     0.00000000  0.66D-18  0.32D-18  6  2     0.09     0.01
   9      1.05292780    -0.24759390   -23.08886734     0.00000000    -0.00000000  0.15D-19  0.19D-19  6  3     0.09     0.01
  10      1.05292780    -0.24759390   -23.08886734     0.00000000    -0.00000000  0.87D-21  0.46D-21  6  4     0.10     0.01
  11      1.05292780    -0.24759390   -23.08886734     0.00000000    -0.00000000  0.51D-23  0.43D-23  6  5     0.10     0.01
  12      1.05292780    -0.24759390   -23.08886734     0.00000000    -0.00000000  0.15D-24  0.33D-25  6  6     0.11     0.01


 ! DIPOLE MOMENTS:                      0.00000000     0.00000000     0.00000000



 Norm of t1 vector:      0.00256699      S-energy:    -0.00000155      T1 diagnostic:  0.00045378

 Singles amplitudes (print threshold =  0.000E+00):

         I         SYM. A    A   T(IA)

         1         1         1      0.00076199
         1         1         2      0.00000000
         1         1         3     -0.00000000
         1         1         4     -0.00000522
         2         2         1      0.00067778
         2         2         2      0.00000000
         2         2         3     -0.00000234
         2         2         4      0.00000455
         3         3         1      0.00067778
         3         3         2     -0.00000000
         3         3         3     -0.00000234
         3         3         4      0.00000455
         4         4         1      0.00059648
         4         4         2     -0.00000163
         4         4         3      0.00000000
         4         4         4      0.00000474
         5         5         1      0.00067778
         5         5         2     -0.00000000
         5         5         3     -0.00000234
         5         5         4      0.00000455
         6         6         1      0.00059648
         6         6         2     -0.00000163
         6         6         3      0.00000000
         6         6         4      0.00000474
         7         7         1      0.00059648
         7         7         2     -0.00000163
         7         7         3      0.00000000
         7         7         4      0.00000474
         8         8         1      0.00051805
         8         8         2     -0.00000000
         8         8         3      0.00000000
         8         8         4      0.00000491

 Doubles amplitudes (print threshold =  0.000E+00):

         I         J         SYM. A    SYM. B    A         B      T(IJ, AB)

         1         1         1         1         1         1     -0.00787612
         1         1         1         1         1         2     -0.00000000
         1         1         1         1         1         3     -0.00000000
         1         1         1         1         1         4      0.00001344
         1         1         1         1         2         1     -0.00000000
         1         1         1         1         2         2     -0.00394917
         1         1         1         1         2         3     -0.00000000
         1         1         1         1         2         4      0.00000000
         1         1         1         1         3         1     -0.00000000
         1         1         1         1         3         2     -0.00000000
         1         1         1         1         3         3     -0.00394917
         1         1         1         1         3         4     -0.00000000
         1         1         1         1         4         1      0.00001344
         1         1         1         1         4         2      0.00000000
         1         1         1         1         4         3     -0.00000000
         1         1         1         1         4         4     -0.00400312
         1         1         2         2         1         1     -0.00761957
         1         1         2         2         1         2     -0.00000000
         1         1         2         2         1         3      0.00000697
         1         1         2         2         1         4     -0.00000896
         1         1         2         2         2         1     -0.00000000
         1         1         2         2         2         2     -0.00388192
         1         1         2         2         2         3      0.00000000
         1         1         2         2         2         4      0.00000000
         1         1         2         2         3         1      0.00000697
         1         1         2         2         3         2      0.00000000
         1         1         2         2         3         3     -0.00386203
         1         1         2         2         3         4      0.00003427
         1         1         2         2         4         1     -0.00000896
         1         1         2         2         4         2      0.00000000
         1         1         2         2         4         3      0.00003427
         1         1         2         2         4         4     -0.00388404
         1         1         3         3         1         1     -0.00761957
         1         1         3         3         1         2      0.00000000
         1         1         3         3         1         3      0.00000697
         1         1         3         3         1         4     -0.00000896
         1         1         3         3         2         1      0.00000000
         1         1         3         3         2         2     -0.00388192
         1         1         3         3         2         3     -0.00000000
         1         1         3         3         2         4     -0.00000000
         1         1         3         3         3         1      0.00000697
         1         1         3         3         3         2     -0.00000000
         1         1         3         3         3         3     -0.00386203
         1         1         3         3         3         4      0.00003427
         1         1         3         3         4         1     -0.00000896
         1         1         3         3         4         2     -0.00000000
         1         1         3         3         4         3      0.00003427
         1         1         3         3         4         4     -0.00388404
         1         1         4         4         1         1     -0.00737323
         1         1         4         4         1         2      0.00000517
         1         1         4         4         1         3      0.00000000
         1         1         4         4         1         4     -0.00000544
         1         1         4         4         2         1      0.00000517
         1         1         4         4         2         2     -0.00383596
         1         1         4         4         2         3      0.00000000
         1         1         4         4         2         4      0.00002276
         1         1         4         4         3         1      0.00000000
         1         1         4         4         3         2      0.00000000
         1         1         4         4         3         3     -0.00377092
         1         1         4         4         3         4     -0.00000000
         1         1         4         4         4         1     -0.00000544
         1         1         4         4         4         2      0.00002276
         1         1         4         4         4         3     -0.00000000
         1         1         4         4         4         4     -0.00381919
         1         1         5         5         1         1     -0.00761957
         1         1         5         5         1         2      0.00000000
         1         1         5         5         1         3      0.00000697
         1         1         5         5         1         4     -0.00000896
         1         1         5         5         2         1      0.00000000
         1         1         5         5         2         2     -0.00388192
         1         1         5         5         2         3     -0.00000000
         1         1         5         5         2         4     -0.00000000
         1         1         5         5         3         1      0.00000697
         1         1         5         5         3         2     -0.00000000
         1         1         5         5         3         3     -0.00386203
         1         1         5         5         3         4      0.00003427
         1         1         5         5         4         1     -0.00000896
         1         1         5         5         4         2     -0.00000000
         1         1         5         5         4         3      0.00003427
         1         1         5         5         4         4     -0.00388404
         1         1         6         6         1         1     -0.00737323
         1         1         6         6         1         2      0.00000517
         1         1         6         6         1         3      0.00000000
         1         1         6         6         1         4     -0.00000544
         1         1         6         6         2         1      0.00000517
         1         1         6         6         2         2     -0.00383596
         1         1         6         6         2         3      0.00000000
         1         1         6         6         2         4      0.00002276
         1         1         6         6         3         1      0.00000000
         1         1         6         6         3         2      0.00000000
         1         1         6         6         3         3     -0.00377092
         1         1         6         6         3         4     -0.00000000
         1         1         6         6         4         1     -0.00000544
         1         1         6         6         4         2      0.00002276
         1         1         6         6         4         3     -0.00000000
         1         1         6         6         4         4     -0.00381919
         1         1         7         7         1         1     -0.00737323
         1         1         7         7         1         2      0.00000517
         1         1         7         7         1         3      0.00000000
         1         1         7         7         1         4     -0.00000544
         1         1         7         7         2         1      0.00000517
         1         1         7         7         2         2     -0.00383596
         1         1         7         7         2         3      0.00000000
         1         1         7         7         2         4      0.00002276
         1         1         7         7         3         1      0.00000000
         1         1         7         7         3         2      0.00000000
         1         1         7         7         3         3     -0.00377092
         1         1         7         7         3         4     -0.00000000
         1         1         7         7         4         1     -0.00000544
         1         1         7         7         4         2      0.00002276
         1         1         7         7         4         3     -0.00000000
         1         1         7         7         4         4     -0.00381919
         1         1         8         8         1         1     -0.00713671
         1         1         8         8         1         2      0.00000000
         1         1         8         8         1         3     -0.00000000
         1         1         8         8         1         4     -0.00000251
         1         1         8         8         2         1      0.00000000
         1         1         8         8         2         2     -0.00375685
         1         1         8         8         2         3      0.00000000
         1         1         8         8         2         4     -0.00000000
         1         1         8         8         3         1     -0.00000000
         1         1         8         8         3         2      0.00000000
         1         1         8         8         3         3     -0.00375685
         1         1         8         8         3         4      0.00000000
         1         1         8         8         4         1     -0.00000251
         1         1         8         8         4         2     -0.00000000
         1         1         8         8         4         3      0.00000000
         1         1         8         8         4         4     -0.00378142
         2         2         1         1         1         1     -0.00796772
         2         2         1         1         1         2     -0.00000002
         2         2         1         1         1         3     -0.00000000
         2         2         1         1         1         4      0.00000527
         2         2         1         1         2         1     -0.00000002
         2         2         1         1         2         2     -0.00391197
         2         2         1         1         2         3     -0.00000126
         2         2         1         1         2         4     -0.00003292
         2         2         1         1         3         1     -0.00000000
         2         2         1         1         3         2     -0.00000126
         2         2         1         1         3         3     -0.00390585
         2         2         1         1         3         4     -0.00000652
         2         2         1         1         4         1      0.00000527
         2         2         1         1         4         2     -0.00003292
         2         2         1         1         4         3     -0.00000652
         2         2         1         1         4         4     -0.00388018
         2         2         2         2         1         1     -0.00770715
         2         2         2         2         1         2     -0.00000000
         2         2         2         2         1         3      0.00000500
         2         2         2         2         1         4     -0.00001092
         2         2         2         2         2         1     -0.00000000
         2         2         2         2         2         2     -0.00397302
         2         2         2         2         2         3      0.00000000
         2         2         2         2         2         4     -0.00000000
         2         2         2         2         3         1      0.00000500
         2         2         2         2         3         2      0.00000000
         2         2         2         2         3         3     -0.00402596
         2         2         2         2         3         4     -0.00000157
         2         2         2         2         4         1     -0.00001092
         2         2         2         2         4         2     -0.00000000
         2         2         2         2         4         3     -0.00000157
         2         2         2         2         4         4     -0.00396985
         2         2         3         3         1         1     -0.00770647
         2         2         3         3         1         2     -0.00000420
         2         2         3         3         1         3      0.00000221
         2         2         3         3         1         4      0.00000064
         2         2         3         3         2         1     -0.00000420
         2         2         3         3         2         2     -0.00384975
         2         2         3         3         2         3      0.00001683
         2         2         3         3         2         4     -0.00003256
         2         2         3         3         3         1      0.00000221
         2         2         3         3         3         2      0.00001683
         2         2         3         3         3         3     -0.00383296
         2         2         3         3         3         4      0.00000584
         2         2         3         3         4         1      0.00000064
         2         2         3         3         4         2     -0.00003256
         2         2         3         3         4         3      0.00000584
         2         2         3         3         4         4     -0.00381121
         2         2         4         4         1         1     -0.00745714
         2         2         4         4         1         2      0.00000518
         2         2         4         4         1         3      0.00000009
         2         2         4         4         1         4     -0.00000656
         2         2         4         4         2         1      0.00000518
         2         2         4         4         2         2     -0.00390456
         2         2         4         4         2         3      0.00002436
         2         2         4         4         2         4      0.00001861
         2         2         4         4         3         1      0.00000009
         2         2         4         4         3         2      0.00002436
         2         2         4         4         3         3     -0.00390837
         2         2         4         4         3         4      0.00001170
         2         2         4         4         4         1     -0.00000656
         2         2         4         4         4         2      0.00001861
         2         2         4         4         4         3      0.00001170
         2         2         4         4         4         4     -0.00388168
         2         2         5         5         1         1     -0.00770647
         2         2         5         5         1         2     -0.00000420
         2         2         5         5         1         3      0.00000221
         2         2         5         5         1         4      0.00000064
         2         2         5         5         2         1     -0.00000420
         2         2         5         5         2         2     -0.00384975
         2         2         5         5         2         3      0.00001683
         2         2         5         5         2         4     -0.00003256
         2         2         5         5         3         1      0.00000221
         2         2         5         5         3         2      0.00001683
         2         2         5         5         3         3     -0.00383296
         2         2         5         5         3         4      0.00000584
         2         2         5         5         4         1      0.00000064
         2         2         5         5         4         2     -0.00003256
         2         2         5         5         4         3      0.00000584
         2         2         5         5         4         4     -0.00381121
         2         2         6         6         1         1     -0.00745714
         2         2         6         6         1         2      0.00000518
         2         2         6         6         1         3      0.00000009
         2         2         6         6         1         4     -0.00000656
         2         2         6         6         2         1      0.00000518
         2         2         6         6         2         2     -0.00390456
         2         2         6         6         2         3      0.00002436
         2         2         6         6         2         4      0.00001861
         2         2         6         6         3         1      0.00000009
         2         2         6         6         3         2      0.00002436
         2         2         6         6         3         3     -0.00390837
         2         2         6         6         3         4      0.00001170
         2         2         6         6         4         1     -0.00000656
         2         2         6         6         4         2      0.00001861
         2         2         6         6         4         3      0.00001170
         2         2         6         6         4         4     -0.00388168
         2         2         7         7         1         1     -0.00745627
         2         2         7         7         1         2     -0.00000270
         2         2         7         7         1         3     -0.00000000
         2         2         7         7         1         4      0.00000227
         2         2         7         7         2         1     -0.00000270
         2         2         7         7         2         2     -0.00379480
         2         2         7         7         2         3      0.00000000
         2         2         7         7         2         4     -0.00001282
         2         2         7         7         3         1     -0.00000000
         2         2         7         7         3         2      0.00000000
         2         2         7         7         3         3     -0.00378004
         2         2         7         7         3         4      0.00000000
         2         2         7         7         4         1      0.00000227
         2         2         7         7         4         2     -0.00001282
         2         2         7         7         4         3      0.00000000
         2         2         7         7         4         4     -0.00378721
         2         2         8         8         1         1     -0.00721719
         2         2         8         8         1         2     -0.00000001
         2         2         8         8         1         3      0.00000000
         2         2         8         8         1         4     -0.00000302
         2         2         8         8         2         1     -0.00000001
         2         2         8         8         2         2     -0.00386664
         2         2         8         8         2         3      0.00000159
         2         2         8         8         2         4     -0.00001421
         2         2         8         8         3         1      0.00000000
         2         2         8         8         3         2      0.00000159
         2         2         8         8         3         3     -0.00379416
         2         2         8         8         3         4      0.00000031
         2         2         8         8         4         1     -0.00000302
         2         2         8         8         4         2     -0.00001421
         2         2         8         8         4         3      0.00000031
         2         2         8         8         4         4     -0.00383126
         3         3         1         1         1         1     -0.00796772
         3         3         1         1         1         2      0.00000001
         3         3         1         1         1         3      0.00000002
         3         3         1         1         1         4      0.00000527
         3         3         1         1         2         1      0.00000001
         3         3         1         1         2         2     -0.00390629
         3         3         1         1         2         3     -0.00000202
         3         3         1         1         2         4      0.00001081
         3         3         1         1         3         1      0.00000002
         3         3         1         1         3         2     -0.00000202
         3         3         1         1         3         3     -0.00391154
         3         3         1         1         3         4      0.00003178
         3         3         1         1         4         1      0.00000527
         3         3         1         1         4         2      0.00001081
         3         3         1         1         4         3      0.00003178
         3         3         1         1         4         4     -0.00388018
         3         3         2         2         1         1     -0.00770647
         3         3         2         2         1         2     -0.00000420
         3         3         2         2         1         3      0.00000221
         3         3         2         2         1         4      0.00000064
         3         3         2         2         2         1     -0.00000420
         3         3         2         2         2         2     -0.00384975
         3         3         2         2         2         3      0.00001683
         3         3         2         2         2         4     -0.00003256
         3         3         2         2         3         1      0.00000221
         3         3         2         2         3         2      0.00001683
         3         3         2         2         3         3     -0.00383296
         3         3         2         2         3         4      0.00000584
         3         3         2         2         4         1      0.00000064
         3         3         2         2         4         2     -0.00003256
         3         3         2         2         4         3      0.00000584
         3         3         2         2         4         4     -0.00381121
         3         3         3         3         1         1     -0.00770715
         3         3         3         3         1         2      0.00000000
         3         3         3         3         1         3      0.00000500
         3         3         3         3         1         4     -0.00001092
         3         3         3         3         2         1      0.00000000
         3         3         3         3         2         2     -0.00397302
         3         3         3         3         2         3     -0.00000000
         3         3         3         3         2         4      0.00000000
         3         3         3         3         3         1      0.00000500
         3         3         3         3         3         2     -0.00000000
         3         3         3         3         3         3     -0.00402596
         3         3         3         3         3         4     -0.00000157
         3         3         3         3         4         1     -0.00001092
         3         3         3         3         4         2      0.00000000
         3         3         3         3         4         3     -0.00000157
         3         3         3         3         4         4     -0.00396985
         3         3         4         4         1         1     -0.00745714
         3         3         4         4         1         2      0.00000518
         3         3         4         4         1         3     -0.00000009
         3         3         4         4         1         4     -0.00000656
         3         3         4         4         2         1      0.00000518
         3         3         4         4         2         2     -0.00390456
         3         3         4         4         2         3     -0.00002436
         3         3         4         4         2         4      0.00001861
         3         3         4         4         3         1     -0.00000009
         3         3         4         4         3         2     -0.00002436
         3         3         4         4         3         3     -0.00390837
         3         3         4         4         3         4     -0.00001170
         3         3         4         4         4         1     -0.00000656
         3         3         4         4         4         2      0.00001861
         3         3         4         4         4         3     -0.00001170
         3         3         4         4         4         4     -0.00388168
         3         3         5         5         1         1     -0.00770647
         3         3         5         5         1         2      0.00000420
         3         3         5         5         1         3      0.00000221
         3         3         5         5         1         4      0.00000064
         3         3         5         5         2         1      0.00000420
         3         3         5         5         2         2     -0.00384975
         3         3         5         5         2         3     -0.00001683
         3         3         5         5         2         4      0.00003256
         3         3         5         5         3         1      0.00000221
         3         3         5         5         3         2     -0.00001683
         3         3         5         5         3         3     -0.00383296
         3         3         5         5         3         4      0.00000584
         3         3         5         5         4         1      0.00000064
         3         3         5         5         4         2      0.00003256
         3         3         5         5         4         3      0.00000584
         3         3         5         5         4         4     -0.00381121
         3         3         6         6         1         1     -0.00745627
         3         3         6         6         1         2     -0.00000270
         3         3         6         6         1         3     -0.00000000
         3         3         6         6         1         4      0.00000227
         3         3         6         6         2         1     -0.00000270
         3         3         6         6         2         2     -0.00379480
         3         3         6         6         2         3      0.00000000
         3         3         6         6         2         4     -0.00001282
         3         3         6         6         3         1     -0.00000000
         3         3         6         6         3         2      0.00000000
         3         3         6         6         3         3     -0.00378004
         3         3         6         6         3         4      0.00000000
         3         3         6         6         4         1      0.00000227
         3         3         6         6         4         2     -0.00001282
         3         3         6         6         4         3      0.00000000
         3         3         6         6         4         4     -0.00378721
         3         3         7         7         1         1     -0.00745714
         3         3         7         7         1         2      0.00000518
         3         3         7         7         1         3      0.00000009
         3         3         7         7         1         4     -0.00000656
         3         3         7         7         2         1      0.00000518
         3         3         7         7         2         2     -0.00390456
         3         3         7         7         2         3      0.00002436
         3         3         7         7         2         4      0.00001861
         3         3         7         7         3         1      0.00000009
         3         3         7         7         3         2      0.00002436
         3         3         7         7         3         3     -0.00390837
         3         3         7         7         3         4      0.00001170
         3         3         7         7         4         1     -0.00000656
         3         3         7         7         4         2      0.00001861
         3         3         7         7         4         3      0.00001170
         3         3         7         7         4         4     -0.00388168
         3         3         8         8         1         1     -0.00721719
         3         3         8         8         1         2      0.00000000
         3         3         8         8         1         3      0.00000001
         3         3         8         8         1         4     -0.00000302
         3         3         8         8         2         1      0.00000000
         3         3         8         8         2         2     -0.00381366
         3         3         8         8         2         3     -0.00003218
         3         3         8         8         2         4      0.00000737
         3         3         8         8         3         1      0.00000001
         3         3         8         8         3         2     -0.00003218
         3         3         8         8         3         3     -0.00384714
         3         3         8         8         3         4      0.00001215
         3         3         8         8         4         1     -0.00000302
         3         3         8         8         4         2      0.00000737
         3         3         8         8         4         3      0.00001215
         3         3         8         8         4         4     -0.00383126
         4         4         1         1         1         1     -0.00805726
         4         4         1         1         1         2     -0.00000065
         4         4         1         1         1         3      0.00000075
         4         4         1         1         1         4      0.00000370
         4         4         1         1         2         1     -0.00000065
         4         4         1         1         2         2     -0.00384754
         4         4         1         1         2         3      0.00003917
         4         4         1         1         2         4     -0.00001098
         4         4         1         1         3         1      0.00000075
         4         4         1         1         3         2      0.00003917
         4         4         1         1         3         3     -0.00385797
         4         4         1         1         3         4      0.00001254
         4         4         1         1         4         1      0.00000370
         4         4         1         1         4         2     -0.00001098
         4         4         1         1         4         3      0.00001254
         4         4         1         1         4         4     -0.00385405
         4         4         2         2         1         1     -0.00779275
         4         4         2         2         1         2      0.00000033
         4         4         2         2         1         3     -0.00000008
         4         4         2         2         1         4     -0.00000828
         4         4         2         2         2         1      0.00000033
         4         4         2         2         2         2     -0.00393348
         4         4         2         2         2         3      0.00002892
         4         4         2         2         2         4      0.00000470
         4         4         2         2         3         1     -0.00000008
         4         4         2         2         3         2      0.00002892
         4         4         2         2         3         3     -0.00390001
         4         4         2         2         3         4     -0.00001322
         4         4         2         2         4         1     -0.00000828
         4         4         2         2         4         2      0.00000470
         4         4         2         2         4         3     -0.00001322
         4         4         2         2         4         4     -0.00392894
         4         4         3         3         1         1     -0.00779275
         4         4         3         3         1         2      0.00000033
         4         4         3         3         1         3     -0.00000008
         4         4         3         3         1         4     -0.00000828
         4         4         3         3         2         1      0.00000033
         4         4         3         3         2         2     -0.00393348
         4         4         3         3         2         3      0.00002892
         4         4         3         3         2         4      0.00000470
         4         4         3         3         3         1     -0.00000008
         4         4         3         3         3         2      0.00002892
         4         4         3         3         3         3     -0.00390001
         4         4         3         3         3         4     -0.00001322
         4         4         3         3         4         1     -0.00000828
         4         4         3         3         4         2      0.00000470
         4         4         3         3         4         3     -0.00001322
         4         4         3         3         4         4     -0.00392894
         4         4         4         4         1         1     -0.00753905
         4         4         4         4         1         2      0.00000243
         4         4         4         4         1         3     -0.00000000
         4         4         4         4         1         4     -0.00001162
         4         4         4         4         2         1      0.00000243
         4         4         4         4         2         2     -0.00403285
         4         4         4         4         2         3      0.00000000
         4         4         4         4         2         4     -0.00002403
         4         4         4         4         3         1     -0.00000000
         4         4         4         4         3         2      0.00000000
         4         4         4         4         3         3     -0.00399183
         4         4         4         4         3         4      0.00000000
         4         4         4         4         4         1     -0.00001162
         4         4         4         4         4         2     -0.00002403
         4         4         4         4         4         3      0.00000000
         4         4         4         4         4         4     -0.00400934
         4         4         5         5         1         1     -0.00779192
         4         4         5         5         1         2      0.00000000
         4         4         5         5         1         3      0.00000086
         4         4         5         5         1         4      0.00000320
         4         4         5         5         2         1      0.00000000
         4         4         5         5         2         2     -0.00379908
         4         4         5         5         2         3     -0.00000000
         4         4         5         5         2         4     -0.00000000
         4         4         5         5         3         1      0.00000086
         4         4         5         5         3         2     -0.00000000
         4         4         5         5         3         3     -0.00382616
         4         4         5         5         3         4     -0.00000277
         4         4         5         5         4         1      0.00000320
         4         4         5         5         4         2     -0.00000000
         4         4         5         5         4         3     -0.00000277
         4         4         5         5         4         4     -0.00380159
         4         4         6         6         1         1     -0.00753833
         4         4         6         6         1         2     -0.00000233
         4         4         6         6         1         3      0.00000438
         4         4         6         6         1         4     -0.00000054
         4         4         6         6         2         1     -0.00000233
         4         4         6         6         2         2     -0.00383935
         4         4         6         6         2         3     -0.00000809
         4         4         6         6         2         4     -0.00001248
         4         4         6         6         3         1      0.00000438
         4         4         6         6         3         2     -0.00000809
         4         4         6         6         3         3     -0.00387130
         4         4         6         6         3         4      0.00003319
         4         4         6         6         4         1     -0.00000054
         4         4         6         6         4         2     -0.00001248
         4         4         6         6         4         3      0.00003319
         4         4         6         6         4         4     -0.00384713
         4         4         7         7         1         1     -0.00753833
         4         4         7         7         1         2     -0.00000233
         4         4         7         7         1         3      0.00000438
         4         4         7         7         1         4     -0.00000054
         4         4         7         7         2         1     -0.00000233
         4         4         7         7         2         2     -0.00383935
         4         4         7         7         2         3     -0.00000809
         4         4         7         7         2         4     -0.00001248
         4         4         7         7         3         1      0.00000438
         4         4         7         7         3         2     -0.00000809
         4         4         7         7         3         3     -0.00387130
         4         4         7         7         3         4      0.00003319
         4         4         7         7         4         1     -0.00000054
         4         4         7         7         4         2     -0.00001248
         4         4         7         7         4         3      0.00003319
         4         4         7         7         4         4     -0.00384713
         4         4         8         8         1         1     -0.00729554
         4         4         8         8         1         2     -0.00000047
         4         4         8         8         1         3      0.00000085
         4         4         8         8         1         4     -0.00000483
         4         4         8         8         2         1     -0.00000047
         4         4         8         8         2         2     -0.00392644
         4         4         8         8         2         3      0.00000394
         4         4         8         8         2         4     -0.00001488
         4         4         8         8         3         1      0.00000085
         4         4         8         8         3         2      0.00000394
         4         4         8         8         3         3     -0.00393146
         4         4         8         8         3         4      0.00002713
         4         4         8         8         4         1     -0.00000483
         4         4         8         8         4         2     -0.00001488
         4         4         8         8         4         3      0.00002713
         4         4         8         8         4         4     -0.00390118
         5         5         1         1         1         1     -0.00796772
         5         5         1         1         1         2      0.00000001
         5         5         1         1         1         3     -0.00000002
         5         5         1         1         1         4      0.00000527
         5         5         1         1         2         1      0.00000001
         5         5         1         1         2         2     -0.00390847
         5         5         1         1         2         3      0.00000328
         5         5         1         1         2         4      0.00002211
         5         5         1         1         3         1     -0.00000002
         5         5         1         1         3         2      0.00000328
         5         5         1         1         3         3     -0.00390935
         5         5         1         1         3         4     -0.00002525
         5         5         1         1         4         1      0.00000527
         5         5         1         1         4         2      0.00002211
         5         5         1         1         4         3     -0.00002525
         5         5         1         1         4         4     -0.00388018
         5         5         2         2         1         1     -0.00770647
         5         5         2         2         1         2      0.00000420
         5         5         2         2         1         3      0.00000221
         5         5         2         2         1         4      0.00000064
         5         5         2         2         2         1      0.00000420
         5         5         2         2         2         2     -0.00384975
         5         5         2         2         2         3     -0.00001683
         5         5         2         2         2         4      0.00003256
         5         5         2         2         3         1      0.00000221
         5         5         2         2         3         2     -0.00001683
         5         5         2         2         3         3     -0.00383296
         5         5         2         2         3         4      0.00000584
         5         5         2         2         4         1      0.00000064
         5         5         2         2         4         2      0.00003256
         5         5         2         2         4         3      0.00000584
         5         5         2         2         4         4     -0.00381121
         5         5         3         3         1         1     -0.00770647
         5         5         3         3         1         2      0.00000420
         5         5         3         3         1         3      0.00000221
         5         5         3         3         1         4      0.00000064
         5         5         3         3         2         1      0.00000420
         5         5         3         3         2         2     -0.00384975
         5         5         3         3         2         3     -0.00001683
         5         5         3         3         2         4      0.00003256
         5         5         3         3         3         1      0.00000221
         5         5         3         3         3         2     -0.00001683
         5         5         3         3         3         3     -0.00383296
         5         5         3         3         3         4      0.00000584
         5         5         3         3         4         1      0.00000064
         5         5         3         3         4         2      0.00003256
         5         5         3         3         4         3      0.00000584
         5         5         3         3         4         4     -0.00381121
         5         5         4         4         1         1     -0.00745627
         5         5         4         4         1         2     -0.00000270
         5         5         4         4         1         3     -0.00000000
         5         5         4         4         1         4      0.00000227
         5         5         4         4         2         1     -0.00000270
         5         5         4         4         2         2     -0.00379480
         5         5         4         4         2         3      0.00000000
         5         5         4         4         2         4     -0.00001282
         5         5         4         4         3         1     -0.00000000
         5         5         4         4         3         2      0.00000000
         5         5         4         4         3         3     -0.00378004
         5         5         4         4         3         4      0.00000000
         5         5         4         4         4         1      0.00000227
         5         5         4         4         4         2     -0.00001282
         5         5         4         4         4         3      0.00000000
         5         5         4         4         4         4     -0.00378721
         5         5         5         5         1         1     -0.00770715
         5         5         5         5         1         2      0.00000000
         5         5         5         5         1         3      0.00000500
         5         5         5         5         1         4     -0.00001092
         5         5         5         5         2         1      0.00000000
         5         5         5         5         2         2     -0.00397302
         5         5         5         5         2         3     -0.00000000
         5         5         5         5         2         4     -0.00000000
         5         5         5         5         3         1      0.00000500
         5         5         5         5         3         2     -0.00000000
         5         5         5         5         3         3     -0.00402596
         5         5         5         5         3         4     -0.00000157
         5         5         5         5         4         1     -0.00001092
         5         5         5         5         4         2     -0.00000000
         5         5         5         5         4         3     -0.00000157
         5         5         5         5         4         4     -0.00396985
         5         5         6         6         1         1     -0.00745714
         5         5         6         6         1         2      0.00000518
         5         5         6         6         1         3     -0.00000009
         5         5         6         6         1         4     -0.00000656
         5         5         6         6         2         1      0.00000518
         5         5         6         6         2         2     -0.00390456
         5         5         6         6         2         3     -0.00002436
         5         5         6         6         2         4      0.00001861
         5         5         6         6         3         1     -0.00000009
         5         5         6         6         3         2     -0.00002436
         5         5         6         6         3         3     -0.00390837
         5         5         6         6         3         4     -0.00001170
         5         5         6         6         4         1     -0.00000656
         5         5         6         6         4         2      0.00001861
         5         5         6         6         4         3     -0.00001170
         5         5         6         6         4         4     -0.00388168
         5         5         7         7         1         1     -0.00745714
         5         5         7         7         1         2      0.00000518
         5         5         7         7         1         3     -0.00000009
         5         5         7         7         1         4     -0.00000656
         5         5         7         7         2         1      0.00000518
         5         5         7         7         2         2     -0.00390456
         5         5         7         7         2         3     -0.00002436
         5         5         7         7         2         4      0.00001861
         5         5         7         7         3         1     -0.00000009
         5         5         7         7         3         2     -0.00002436
         5         5         7         7         3         3     -0.00390837
         5         5         7         7         3         4     -0.00001170
         5         5         7         7         4         1     -0.00000656
         5         5         7         7         4         2      0.00001861
         5         5         7         7         4         3     -0.00001170
         5         5         7         7         4         4     -0.00388168
         5         5         8         8         1         1     -0.00721719
         5         5         8         8         1         2      0.00000000
         5         5         8         8         1         3     -0.00000001
         5         5         8         8         1         4     -0.00000302
         5         5         8         8         2         1      0.00000000
         5         5         8         8         2         2     -0.00381091
         5         5         8         8         2         3      0.00003059
         5         5         8         8         2         4      0.00000683
         5         5         8         8         3         1     -0.00000001
         5         5         8         8         3         2      0.00003059
         5         5         8         8         3         3     -0.00384990
         5         5         8         8         3         4     -0.00001246
         5         5         8         8         4         1     -0.00000302
         5         5         8         8         4         2      0.00000683
         5         5         8         8         4         3     -0.00001246
         5         5         8         8         4         4     -0.00383126
         6         6         1         1         1         1     -0.00805726
         6         6         1         1         1         2     -0.00000032
         6         6         1         1         1         3     -0.00000094
         6         6         1         1         1         4      0.00000370
         6         6         1         1         2         1     -0.00000032
         6         6         1         1         2         2     -0.00382144
         6         6         1         1         2         3     -0.00002410
         6         6         1         1         2         4     -0.00000537
         6         6         1         1         3         1     -0.00000094
         6         6         1         1         3         2     -0.00002410
         6         6         1         1         3         3     -0.00388407
         6         6         1         1         3         4     -0.00001578
         6         6         1         1         4         1      0.00000370
         6         6         1         1         4         2     -0.00000537
         6         6         1         1         4         3     -0.00001578
         6         6         1         1         4         4     -0.00385405
         6         6         2         2         1         1     -0.00779275
         6         6         2         2         1         2     -0.00000033
         6         6         2         2         1         3     -0.00000008
         6         6         2         2         1         4     -0.00000828
         6         6         2         2         2         1     -0.00000033
         6         6         2         2         2         2     -0.00393348
         6         6         2         2         2         3     -0.00002892
         6         6         2         2         2         4     -0.00000470
         6         6         2         2         3         1     -0.00000008
         6         6         2         2         3         2     -0.00002892
         6         6         2         2         3         3     -0.00390001
         6         6         2         2         3         4     -0.00001322
         6         6         2         2         4         1     -0.00000828
         6         6         2         2         4         2     -0.00000470
         6         6         2         2         4         3     -0.00001322
         6         6         2         2         4         4     -0.00392894
         6         6         3         3         1         1     -0.00779192
         6         6         3         3         1         2     -0.00000000
         6         6         3         3         1         3      0.00000086
         6         6         3         3         1         4      0.00000320
         6         6         3         3         2         1     -0.00000000
         6         6         3         3         2         2     -0.00379908
         6         6         3         3         2         3     -0.00000000
         6         6         3         3         2         4      0.00000000
         6         6         3         3         3         1      0.00000086
         6         6         3         3         3         2     -0.00000000
         6         6         3         3         3         3     -0.00382616
         6         6         3         3         3         4     -0.00000277
         6         6         3         3         4         1      0.00000320
         6         6         3         3         4         2      0.00000000
         6         6         3         3         4         3     -0.00000277
         6         6         3         3         4         4     -0.00380159
         6         6         4         4         1         1     -0.00753833
         6         6         4         4         1         2     -0.00000233
         6         6         4         4         1         3      0.00000438
         6         6         4         4         1         4     -0.00000054
         6         6         4         4         2         1     -0.00000233
         6         6         4         4         2         2     -0.00383935
         6         6         4         4         2         3     -0.00000809
         6         6         4         4         2         4     -0.00001248
         6         6         4         4         3         1      0.00000438
         6         6         4         4         3         2     -0.00000809
         6         6         4         4         3         3     -0.00387130
         6         6         4         4         3         4      0.00003319
         6         6         4         4         4         1     -0.00000054
         6         6         4         4         4         2     -0.00001248
         6         6         4         4         4         3      0.00003319
         6         6         4         4         4         4     -0.00384713
         6         6         5         5         1         1     -0.00779275
         6         6         5         5         1         2      0.00000033
         6         6         5         5         1         3     -0.00000008
         6         6         5         5         1         4     -0.00000828
         6         6         5         5         2         1      0.00000033
         6         6         5         5         2         2     -0.00393348
         6         6         5         5         2         3      0.00002892
         6         6         5         5         2         4      0.00000470
         6         6         5         5         3         1     -0.00000008
         6         6         5         5         3         2      0.00002892
         6         6         5         5         3         3     -0.00390001
         6         6         5         5         3         4     -0.00001322
         6         6         5         5         4         1     -0.00000828
         6         6         5         5         4         2      0.00000470
         6         6         5         5         4         3     -0.00001322
         6         6         5         5         4         4     -0.00392894
         6         6         6         6         1         1     -0.00753905
         6         6         6         6         1         2      0.00000243
         6         6         6         6         1         3     -0.00000000
         6         6         6         6         1         4     -0.00001162
         6         6         6         6         2         1      0.00000243
         6         6         6         6         2         2     -0.00403285
         6         6         6         6         2         3      0.00000000
         6         6         6         6         2         4     -0.00002403
         6         6         6         6         3         1     -0.00000000
         6         6         6         6         3         2      0.00000000
         6         6         6         6         3         3     -0.00399183
         6         6         6         6         3         4      0.00000000
         6         6         6         6         4         1     -0.00001162
         6         6         6         6         4         2     -0.00002403
         6         6         6         6         4         3      0.00000000
         6         6         6         6         4         4     -0.00400934
         6         6         7         7         1         1     -0.00753833
         6         6         7         7         1         2     -0.00000233
         6         6         7         7         1         3     -0.00000438
         6         6         7         7         1         4     -0.00000054
         6         6         7         7         2         1     -0.00000233
         6         6         7         7         2         2     -0.00383935
         6         6         7         7         2         3      0.00000809
[...]
         7         2         2         7         4         2     -0.00232978
         7         2         2         7         4         3     -0.00000000
         7         2         2         7         4         4      0.00298856
         7         2         3         6         1         1     -0.00762032
         7         2         3         6         1         2     -0.00002696
         7         2         3         6         1         3     -0.00000471
         7         2         3         6         1         4      0.00007762
         7         2         3         6         2         1     -0.00000471
         7         2         3         6         2         2     -0.00002530
         7         2         3         6         2         3      0.00392096
         7         2         3         6         2         4     -0.00001305
         7         2         3         6         3         1     -0.00002619
         7         2         3         6         3         2     -0.00307675
         7         2         3         6         3         3      0.00002735
         7         2         3         6         3         4     -0.00237858
         7         2         3         6         4         1      0.00007679
         7         2         3         6         4         2     -0.00241965
         7         2         3         6         4         3      0.00000522
         7         2         3         6         4         4      0.00308209
         7         2         4         5         1         1     -0.00762166
         7         2         4         5         1         2      0.00000911
         7         2         4         5         1         3     -0.00003191
         7         2         4         5         1         4      0.00006177
         7         2         4         5         2         1     -0.00001311
         7         2         4         5         2         2     -0.00000781
         7         2         4         5         2         3     -0.00302855
         7         2         4         5         2         4     -0.00234331
         7         2         4         5         3         1      0.00000913
         7         2         4         5         3         2      0.00386056
         7         2         4         5         3         3     -0.00001554
         7         2         4         5         3         4      0.00003137
         7         2         4         5         4         1      0.00006955
         7         2         4         5         4         2      0.00003493
         7         2         4         5         4         3     -0.00236678
         7         2         4         5         4         4      0.00301862
         7         2         5         4         1         1     -0.00762032
         7         2         5         4         1         2     -0.00002696
         7         2         5         4         1         3     -0.00000471
         7         2         5         4         1         4      0.00007762
         7         2         5         4         2         1     -0.00000471
         7         2         5         4         2         2     -0.00002530
         7         2         5         4         2         3      0.00392096
         7         2         5         4         2         4     -0.00001305
         7         2         5         4         3         1     -0.00002619
         7         2         5         4         3         2     -0.00307675
         7         2         5         4         3         3      0.00002735
         7         2         5         4         3         4     -0.00237858
         7         2         5         4         4         1      0.00007679
         7         2         5         4         4         2     -0.00241965
         7         2         5         4         4         3      0.00000522
         7         2         5         4         4         4      0.00308209
         7         2         6         3         1         1     -0.00762166
         7         2         6         3         1         2      0.00000911
         7         2         6         3         1         3     -0.00003191
         7         2         6         3         1         4      0.00006177
         7         2         6         3         2         1     -0.00001311
         7         2         6         3         2         2     -0.00000781
         7         2         6         3         2         3     -0.00302855
         7         2         6         3         2         4     -0.00234331
         7         2         6         3         3         1      0.00000913
         7         2         6         3         3         2      0.00386056
         7         2         6         3         3         3     -0.00001554
         7         2         6         3         3         4      0.00003137
         7         2         6         3         4         1      0.00006955
         7         2         6         3         4         2      0.00003493
         7         2         6         3         4         3     -0.00236678
         7         2         6         3         4         4      0.00301862
         7         2         7         2         1         1     -0.00762053
         7         2         7         2         1         2      0.00000000
         7         2         7         2         1         3     -0.00003546
         7         2         7         2         1         4      0.00008164
         7         2         7         2         2         1     -0.00002277
         7         2         7         2         2         2      0.00000000
         7         2         7         2         2         3     -0.00318668
         7         2         7         2         2         4     -0.00245008
         7         2         7         2         3         1      0.00000000
         7         2         7         2         3         2      0.00398248
         7         2         7         2         3         3      0.00000000
         7         2         7         2         3         4      0.00000000
         7         2         7         2         4         1      0.00008742
         7         2         7         2         4         2     -0.00000000
         7         2         7         2         4         3     -0.00247776
         7         2         7         2         4         4      0.00313916
         7         2         8         1         1         1     -0.00761996
         7         2         8         1         1         2     -0.00000602
         7         2         8         1         1         3     -0.00000119
         7         2         8         1         1         4     -0.00007761
         7         2         8         1         2         1     -0.00000598
         7         2         8         1         2         2      0.00383050
         7         2         8         1         2         3      0.00084663
         7         2         8         1         2         4      0.00003188
         7         2         8         1         3         1      0.00000013
         7         2         8         1         3         2     -0.00084525
         7         2         8         1         3         3      0.00382267
         7         2         8         1         3         4     -0.00000070
         7         2         8         1         4         1      0.00008127
         7         2         8         1         4         2     -0.00003199
         7         2         8         1         4         3     -0.00000634
         7         2         8         1         4         4     -0.00389036
         8         1         1         8         1         1     -0.00761425
         8         1         1         8         1         2     -0.00000000
         8         1         1         8         1         3      0.00000000
         8         1         1         8         1         4      0.00007103
         8         1         1         8         2         1     -0.00000000
         8         1         1         8         2         2      0.00369948
         8         1         1         8         2         3     -0.00081784
         8         1         1         8         2         4     -0.00000000
         8         1         1         8         3         1      0.00000000
         8         1         1         8         3         2      0.00081784
         8         1         1         8         3         3      0.00369948
         8         1         1         8         3         4      0.00000000
         8         1         1         8         4         1     -0.00006783
         8         1         1         8         4         2     -0.00000000
         8         1         1         8         4         3      0.00000000
         8         1         1         8         4         4     -0.00381414
         8         1         2         7         1         1     -0.00761646
         8         1         2         7         1         2     -0.00002838
         8         1         2         7         1         3      0.00000000
         8         1         2         7         1         4      0.00007176
         8         1         2         7         2         1      0.00000000
         8         1         2         7         2         2     -0.00000000
         8         1         2         7         2         3      0.00380293
         8         1         2         7         2         4     -0.00000000
         8         1         2         7         3         1     -0.00002158
         8         1         2         7         3         2     -0.00303744
         8         1         2         7         3         3      0.00000000
         8         1         2         7         3         4     -0.00234972
         8         1         2         7         4         1      0.00007337
         8         1         2         7         4         2     -0.00239501
         8         1         2         7         4         3      0.00000000
         8         1         2         7         4         4      0.00305264
         8         1         3         6         1         1     -0.00761646
         8         1         3         6         1         2     -0.00002838
         8         1         3         6         1         3      0.00000000
         8         1         3         6         1         4      0.00007176
         8         1         3         6         2         1      0.00000000
         8         1         3         6         2         2     -0.00000000
         8         1         3         6         2         3      0.00380293
         8         1         3         6         2         4      0.00000000
         8         1         3         6         3         1     -0.00002158
         8         1         3         6         3         2     -0.00303744
         8         1         3         6         3         3      0.00000000
         8         1         3         6         3         4     -0.00234972
         8         1         3         6         4         1      0.00007337
         8         1         3         6         4         2     -0.00239501
         8         1         3         6         4         3      0.00000000
         8         1         3         6         4         4      0.00305264
         8         1         4         5         1         1     -0.00761748
         8         1         4         5         1         2     -0.00000000
         8         1         4         5         1         3     -0.00004061
         8         1         4         5         1         4      0.00007338
         8         1         4         5         2         1     -0.00001366
         8         1         4         5         2         2     -0.00000000
         8         1         4         5         2         3     -0.00305108
         8         1         4         5         2         4     -0.00238107
         8         1         4         5         3         1     -0.00000000
         8         1         4         5         3         2      0.00391418
         8         1         4         5         3         3     -0.00000000
         8         1         4         5         3         4      0.00000000
         8         1         4         5         4         1      0.00008459
         8         1         4         5         4         2     -0.00000000
         8         1         4         5         4         3     -0.00242008
         8         1         4         5         4         4      0.00311094
         8         1         5         4         1         1     -0.00761646
         8         1         5         4         1         2     -0.00002838
         8         1         5         4         1         3      0.00000000
         8         1         5         4         1         4      0.00007176
         8         1         5         4         2         1     -0.00000000
         8         1         5         4         2         2     -0.00000000
         8         1         5         4         2         3      0.00380293
         8         1         5         4         2         4     -0.00000000
         8         1         5         4         3         1     -0.00002158
         8         1         5         4         3         2     -0.00303744
         8         1         5         4         3         3      0.00000000
         8         1         5         4         3         4     -0.00234972
         8         1         5         4         4         1      0.00007337
         8         1         5         4         4         2     -0.00239501
         8         1         5         4         4         3      0.00000000
         8         1         5         4         4         4      0.00305264
         8         1         6         3         1         1     -0.00761748
         8         1         6         3         1         2     -0.00000000
         8         1         6         3         1         3     -0.00004061
         8         1         6         3         1         4      0.00007338
         8         1         6         3         2         1     -0.00001366
         8         1         6         3         2         2     -0.00000000
         8         1         6         3         2         3     -0.00305108
         8         1         6         3         2         4     -0.00238107
         8         1         6         3         3         1      0.00000000
         8         1         6         3         3         2      0.00391418
         8         1         6         3         3         3      0.00000000
         8         1         6         3         3         4      0.00000000
         8         1         6         3         4         1      0.00008459
         8         1         6         3         4         2     -0.00000000
         8         1         6         3         4         3     -0.00242008
         8         1         6         3         4         4      0.00311094
         8         1         7         2         1         1     -0.00761748
         8         1         7         2         1         2     -0.00000000
         8         1         7         2         1         3     -0.00004061
         8         1         7         2         1         4      0.00007338
         8         1         7         2         2         1     -0.00001366
         8         1         7         2         2         2     -0.00000000
         8         1         7         2         2         3     -0.00305108
         8         1         7         2         2         4     -0.00238107
         8         1         7         2         3         1      0.00000000
         8         1         7         2         3         2      0.00391418
         8         1         7         2         3         3      0.00000000
         8         1         7         2         3         4      0.00000000
         8         1         7         2         4         1      0.00008459
         8         1         7         2         4         2     -0.00000000
         8         1         7         2         4         3     -0.00242008
         8         1         7         2         4         4      0.00311094
         8         1         8         1         1         1     -0.00761731
         8         1         8         1         1         2     -0.00000000
         8         1         8         1         1         3     -0.00000000
         8         1         8         1         1         4     -0.00008955
         8         1         8         1         2         1     -0.00000000
         8         1         8         1         2         2      0.00388778
         8         1         8         1         2         3      0.00085947
         8         1         8         1         2         4     -0.00000000
         8         1         8         1         3         1      0.00000000
         8         1         8         1         3         2     -0.00085947
         8         1         8         1         3         3      0.00388778
         8         1         8         1         3         4      0.00000000
         8         1         8         1         4         1      0.00009355
         8         1         8         1         4         2      0.00000000
         8         1         8         1         4         3      0.00000000
         8         1         8         1         4         4     -0.00403539


 RESULTS
 =======

  Reference energy                    -22.841273440359
  CISD singlet pair energy             -0.247528522949
  CISD triplet pair energy             -0.000063823480
  CISD correlation energy              -0.247593895918

 !CISD total energy                   -23.088867336277

 Timing summary (sec):

 STEP                 CPU(USER)    SYS     CPU(TOT)    WALL
 Transformation          0.01      0.01      0.02      0.01
 CCSD iterations         0.13      0.01      0.14      0.14

 Program statistics:

 Available memory in ccsd:                39998944
 Min. memory needed in ccsd:                 17807
 Max. memory used in ccsd:                   21999
 Max. memory used in cckext:                 49075 (12 integral passes)



 **********************************************************************************************************************************
 DATASETS  * FILE   NREC   LENGTH (MB)   RECORD NAMES
              1      20       30.45       500      700      610      900      950      970     1000      129      960     1100   
                                          VAR     GEOM    BASINP   SYMINP    ZMAT    AOBASIS   BASIS     P2S    ABASIS      S 
                                         1400     1410     1200     1210     1080     1600     1650     1300     1700     1380   
                                           T        V       H0       H01     AOSYM     SMH    MOLCAS    ERIS     OPER     JKOP   

              3       5       14.89       500      610      700     1000     2100   
                                          VAR    BASINP    GEOM     BASIS     RHF  

 PROGRAMS   *        TOTAL      CISD       INT   RESTART
 CPU TIMES  *         0.62      0.21      0.27      0.02
 REAL TIME  *         0.81 SEC
 DISK USED  *        50.37 MB
 **********************************************************************************************************************************
 Molecular orbitals read from record     2100.3  Type=RHF/CANONICAL (state 1.1)
 Occupation numbers read from record     2100.3  Type=RHF/RHF (state 1.1)
 Orbital energies read from record       2100.3  Type=RHF/CANONICAL (state 1.1)
 Redundancy group numbers read from rec  2100.3  Type=RHF/RHF (state 1.1)

 CISD/cc-pVDZ energy=    -23.088867336277

            CISD
    -23.08886734
 **********************************************************************************************************************************
 Molpro calculation terminated
