
 Primary working directories    : /scr/yuriaoto/job.022370/molpro.BCYbPpFFsb
 Secondary working directories  : /scr/yuriaoto/job.022370/molpro.BCYbPpFFsb
 Wavefunction directory         : /scr/yuriaoto/job.022370/
 Main file repository           : /scr/yuriaoto/job.022370/molpro.BCYbPpFFsb/

 id        : yuriaoto

 Nodes             nprocs
 t-rex.ufabc.int.br    1

 Using customized tuning parameters: mindgm=8; mindgv=16; mindgc=1; mindgr=1; noblas=0; minvec=7
 default implementation of scratch files=df  


 Variables initialized (933), CPU time= 0.00 sec
 ***,
 memory,40,m
 gprint,orbital=15,basis
 gthresh,thrprint=0
 file,3,wfu.dat,new
 
 r = 5.0
 basis = cc-pVDZ
 
 nosym
 geom={H1;H2,H1,r}
 
 {rhf
 wf,2,1,0
 }
 
 {uhf
 rotate,1.1,2.1,45
 wf,2,1,0
 orbital,2100.3
 }
 
 {put,xml,orbitals.xml; nosort; novariables}
 
 Commands  initialized (760), CPU time= 0.01 sec, 617 directives.
 Default parameters read. Elapsed time= 0.04 sec

 Checking input...
 Passed
1


                                         ***  PROGRAM SYSTEM MOLPRO  ***
                                       Copyright, TTI GmbH Stuttgart, 2015
                                    Version 2019.2 linked Abr  7 2019 15:10:35


 **********************************************************************************************************************************
 LABEL *                                                                                 
  64 bit serial version                                                                  DATE: 16-Oct-19          TIME: 09:32:02  
 **********************************************************************************************************************************

 SHA1:             3a8a58c585c929645742fb5a1b7541a4ad1da699
 **********************************************************************************************************************************


 THRESHOLDS:

 ZERO    =  1.00D-12  ONEINT  =  1.00D-12  TWOINT  =  1.00D-11  PREFAC  =  1.00D-14  XXXXXX  =  1.00D-09  EORDER  =  1.00D-04
 ENERGY  =  0.00D+00  ETEST   =  0.00D+00  EDENS   =  0.00D+00  THRDEDEF=  1.00D-06  GRADIENT=  1.00D-02  STEP    =  1.00D-03
 ORBITAL =  1.00D-05  CIVEC   =  1.00D-05  COEFF   =  1.00D-04  PRINTCI =  5.00D-02  PUNCHCI =  9.90D+01  OPTGRAD =  3.00D-04
 OPTENERG=  1.00D-06  OPTSTEP =  3.00D-04  THRGRAD =  1.00D-10  COMPRESS=  1.00D-11  VARMIN  =  1.00D-07  VARMAX  =  1.00D-03
 THRDOUB =  0.00D+00  THRDIV  =  1.00D-05  THRRED  =  1.00D-07  THRPSP  =  1.00D+00  THRDC   =  1.00D-10  THRCS   =  1.00D-10
 THRNRM  =  1.00D-08  THREQ   =  0.00D+00  THRDE   =  1.00D+00  THRREF  =  1.00D-05  SPARFAC =  1.00D+00  THRDLP  =  1.00D-07
 THRDIA  =  1.00D-10  THRDLS  =  1.00D-07  THRGPS  =  0.00D+00  THRKEX  =  0.00D+00  THRDIS  =  2.00D-01  THRVAR  =  1.00D-10
 THRLOC  =  1.00D-06  THRGAP  =  1.00D-06  THRLOCT = -1.00D+00  THRGAPT = -1.00D+00  THRORB  =  1.00D-06  THRMLTP =  0.00D+00
 THRCPQCI=  1.00D-10  KEXTA   =  0.00D+00  THRCOARS=  0.00D+00  SYMTOL  =  1.00D-06  GRADTOL =  1.00D-06  THROVL  =  1.00D-08
 THRORTH =  1.00D-08  GRID    =  1.00D-06  GRIDMAX =  1.00D-03  DTMAX   =  0.00D+00  THROCCDE=  1.00D-01  THROCCDE=  1.00D-01
 THRPRINT=  0.00D+00


 Variable memory set to   40000000 words,  buffer space 



 Permanent file  3  wfu.dat  assigned.  Implementation=df  



 **********************************************************************************************************************************
 DATASETS  * FILE   NREC   LENGTH (MB)   RECORD NAMES
              3       1        0.03       500   
                                          VAR  

 PROGRAMS   *        TOTAL      FILE
 CPU TIMES  *         0.11      0.00
 REAL TIME  *         0.11 SEC
 DISK USED  *         0.09 MB
 **********************************************************************************************************************************
 SETTING R              =         5.00000000                                  
 SETTING BASIS          =    CC-PVDZ
 ZSYMEL=NOSYM



 Recomputing integrals since basis changed


 Using spherical harmonics

 Library entry H      S cc-pVDZ              selected for orbital group  1
 Library entry H      P cc-pVDZ              selected for orbital group  1


 PROGRAM * SEWARD (Integral evaluation for generally contracted gaussian basis sets)     Author: Roland Lindh, 1990

 Geometry written to block  1 of record 700

 Orientation using atomic masses  
 Molecule type: Linear
 Rotational constants:     143.2419517    143.2419517      0.0000000 GHz  (calculated with average atomic masses)

 Point group  C1  



 ATOMIC COORDINATES

 NR  ATOM    CHARGE       X              Y              Z

   1  H1      1.00    0.000000000    0.000000000   -2.500000000
   2  H2      1.00    0.000000000    0.000000000    2.500000000


 BASIS DATA

   Nr Sym  Nuc  Type         Exponents   Contraction coefficients

    1.1 A     1  1s          13.010000     0.019685    0.000000
    2.1 A                     1.962000     0.137977    0.000000
                              0.444600     0.478148    0.000000
                              0.122000     0.501240    1.000000
    3.1 A     1  2px          0.727000     1.000000
    4.1 A     1  2py          0.727000     1.000000
    5.1 A     1  2pz          0.727000     1.000000
    6.1 A     2  1s          13.010000     0.019685    0.000000
    7.1 A                     1.962000     0.137977    0.000000
                              0.444600     0.478148    0.000000
                              0.122000     0.501240    1.000000
    8.1 A     2  2px          0.727000     1.000000
    9.1 A     2  2py          0.727000     1.000000
   10.1 A     2  2pz          0.727000     1.000000

 NUCLEAR CHARGE:                    2
 NUMBER OF PRIMITIVE AOS:          14
 NUMBER OF SYMMETRY AOS:           14
 NUMBER OF CONTRACTIONS:           10   (   10A   )
 NUMBER OF CORE ORBITALS:           0   (    0A   )
 NUMBER OF VALENCE ORBITALS:        2   (    2A   )


 NUCLEAR REPULSION ENERGY    0.20000000

 EXTRA SYMMETRY OF AOS IN SYMMETRY 1:   1 1 2 3 1 1 1 2 3 1

 Eigenvalues of metric

         1 0.832E-01 0.104E+00 0.993E+00 0.999E+00 0.100E+01 0.100E+01 0.100E+01 0.100E+01


 Contracted 2-electron integrals neglected if value below      1.0D-11
 AO integral compression algorithm  1   Integral accuracy      1.0D-11

     0.262 MB (compressed) written to integral file ( 64.6%)


 NUMBER OF SORTED TWO-ELECTRON INTEGRALS:       1540.     BUFFER LENGTH:  32768
 NUMBER OF SEGMENTS:   1  SEGMENT LENGTH:       1540      RECORD LENGTH: 524288

 Memory used in sort:       0.56 MW

 SORT1 READ        2389. AND WROTE         512. INTEGRALS IN      1 RECORDS. CPU TIME:     0.00 SEC, REAL TIME:     0.01 SEC
 SORT2 READ         512. AND WROTE        1540. INTEGRALS IN      1 RECORDS. CPU TIME:     0.01 SEC, REAL TIME:     0.00 SEC

 FILE SIZES:   FILE 1:    30.2 MBYTE,  FILE 4:     4.2 MBYTE,   TOTAL:     34.4 MBYTE

 OPERATOR DM      FOR CENTER  0  COORDINATES:    0.000000    0.000000    0.000000


 **********************************************************************************************************************************
 DATASETS  * FILE   NREC   LENGTH (MB)   RECORD NAMES
              1      19       29.94       500      610      700      900      950      970     1000      129      960     1100   
                                          VAR    BASINP    GEOM    SYMINP    ZMAT    AOBASIS   BASIS     P2S    ABASIS      S 
                                         1400     1410     1200     1210     1080     1600     1650     1300     1700   
                                           T        V       H0       H01     AOSYM     SMH    MOLCAS    ERIS     OPER   

              3       4       12.28       500      610      700     1000   
                                          VAR    BASINP    GEOM     BASIS   

 PROGRAMS   *        TOTAL       INT      FILE
 CPU TIMES  *         0.27      0.15      0.00
 REAL TIME  *         1.34 SEC
 DISK USED  *        46.93 MB
 **********************************************************************************************************************************


 PROGRAM * RHF-SCF (CLOSED SHELL)       Authors: W. Meyer, H.-J. Werner


 NUMBER OF ELECTRONS:       1+    1-    SPACE SYMMETRY=1    SPIN SYMMETRY: Singlet 
 CONVERGENCE THRESHOLDS:    1.00E-05 (Density)    1.00E-07 (Energy)
 MAX. NUMBER OF ITERATIONS:       60
 INTERPOLATION TYPE:            DIIS
 INTERPOLATION STEPS:              2 (START)      1 (STEP)
 LEVEL SHIFTS:                  0.00 (CLOSED)  0.00 (OPEN) 



 Orbital guess generated from atomic densities. Full valence occupancy:    2

 Molecular orbital dump at record        2100.3

 Initial occupancy:   1

 ITERATION    DDIFF          GRAD             ENERGY        2-EL.EN.            DIPOLE MOMENTS         DIIS   ORB.
    1      0.000D+00      0.000D+00        -0.85215994      0.745407    0.00000   -0.00000   -0.00000    0    start
    2      0.000D+00      0.415D-02        -0.85241822      0.742140   -0.00000   -0.00000    0.00000    1    diag
    3      0.607D-02      0.595D-03        -0.85242436      0.741412   -0.00000   -0.00000   -0.00000    2    diag
    4      0.124D-02      0.200D-04        -0.85242437      0.741369   -0.00000   -0.00000    0.00000    3    diag
    5      0.578D-04      0.630D-07        -0.85242437      0.741369   -0.00000   -0.00000   -0.00000    4    diag
    6      0.197D-06      0.299D-12        -0.85242437      0.741369   -0.00000   -0.00000   -0.00000    0    orth

 Final occupancy:   1

 !RHF STATE  1.1 Energy                -0.852424365626
 Nuclear energy                         0.20000000
 One-electron energy                   -1.42310908
 Two-electron energy                    0.37068472
 Virial quotient                       -1.27375347
 !RHF STATE  1.1 Dipole moment         -0.00000000    -0.00000000    -0.00000000
 Dipole moment /Debye                  -0.00000000    -0.00000000    -0.00000000

 MOLECULAR ORBITALS
 ==================

   Orb  Occ    Energy       Coefficients

                            1 1s      1 1s      1 2px     1 2py     1 2pz     2 1s      2 1s      2 2px     2 2py     2 2pz  


   1.1   2    -0.3409     0.507299  0.171986 -0.000000  0.000000  0.007528  0.507299  0.171986  0.000000 -0.000000 -0.007528

   2.1   0    -0.0952     0.546755  0.225915 -0.000000  0.000000 -0.010126 -0.546755 -0.225915 -0.000000  0.000000 -0.010126

   3.1   0     0.6131    -1.541510  1.524335  0.000000  0.000000  0.032145 -1.541510  1.524335  0.000000  0.000000 -0.032145

   4.1   0     0.6728    -1.606210  1.810494  0.000000  0.000000 -0.046505  1.606210 -1.810494  0.000000 -0.000000 -0.046505

   5.1   0     1.4611     0.130304 -0.158366  0.000000  0.000000  0.707035  0.130304 -0.158366  0.000000  0.000000 -0.707035

   6.1   0     1.4628     0.000000 -0.000000  0.634693 -0.311622  0.000000  0.000000 -0.000000  0.634693 -0.311622 -0.000000

   7.1   0     1.4628     0.000000 -0.000000  0.311622  0.634693 -0.000000  0.000000 -0.000000  0.311622  0.634693  0.000000

   8.1   0     1.4677    -0.000000  0.000000  0.472278 -0.526317 -0.000000 -0.000000  0.000000 -0.472278  0.526317  0.000000

   9.1   0     1.4677    -0.000000  0.000000  0.526317  0.472278 -0.000000 -0.000000  0.000000 -0.526317 -0.472278  0.000000

  10.1   0     1.5015    -0.194103  0.263810  0.000000  0.000000  0.708597  0.194103 -0.263810  0.000000  0.000000  0.708597


 HOMO      1.1    -0.340870 =      -9.2755eV
 LUMO      2.1    -0.095203 =      -2.5906eV
 LUMO-HOMO         0.245667 =       6.6849eV


 **********************************************************************************************************************************
 DATASETS  * FILE   NREC   LENGTH (MB)   RECORD NAMES
              1      19       29.94       500      610      700      900      950      970     1000      129      960     1100   
                                          VAR    BASINP    GEOM    SYMINP    ZMAT    AOBASIS   BASIS     P2S    ABASIS      S 
                                         1400     1410     1200     1210     1080     1600     1650     1300     1700   
                                           T        V       H0       H01     AOSYM     SMH    MOLCAS    ERIS     OPER   

              3       5       14.77       500      610      700     1000     2100   
                                          VAR    BASINP    GEOM     BASIS     RHF  

 PROGRAMS   *        TOTAL   RHF-SCF       INT      FILE
 CPU TIMES  *         0.39      0.12      0.15      0.00
 REAL TIME  *         1.91 SEC
 DISK USED  *        46.93 MB
 **********************************************************************************************************************************


 PROGRAM * UHF-SCF       Authors: W. Meyer, H.-J. Werner


 NUMBER OF ELECTRONS:       1+    1-    SPACE SYMMETRY=1    SPIN SYMMETRY: Singlet 
 CONVERGENCE THRESHOLDS:    1.00E-05 (Density)    1.00E-07 (Energy)
 MAX. NUMBER OF ITERATIONS:       60
 INTERPOLATION TYPE:            DIIS
 INTERPOLATION STEPS:              2 (START)      1 (STEP)
 LEVEL SHIFTS:                 -0.20 (ALPHA)  -0.20 (BETA) 



 Molecular orbitals read from record     2100.3  Type=RHF/CANONICAL (state 1.1)

 Molecular orbital dump at record        2100.3

 ROTATION OF BETA  ORBITALS   1.1    2.1       45.00 DEGREES

 Initial alpha occupation   1
 Initial beta  occupation   1

 ITERATION    DDIFF          GRAD             ENERGY        2-EL.EN.            DIPOLE MOMENTS         DIIS
    1      0.000D+00      0.000D+00        -0.82739139      0.741199    0.00000   -0.00000    2.52189    0
    2      0.378D-01      0.252D-01        -0.90602954      0.589963   -0.00000   -0.00000    1.46020    1
    3      0.524D-01      0.207D-01        -0.98112987      0.447492   -0.00000    0.00000    0.35137    2
    4      0.430D-01      0.996D-02        -0.99890068      0.404118   -0.00000    0.00000    0.00024    3
    5      0.251D-02      0.877D-03        -0.99904417      0.402236   -0.00000    0.00000   -0.00163    4
    6      0.987D-03      0.294D-03        -0.99905586      0.401794   -0.00000    0.00000   -0.00189    5
    7      0.537D-03      0.146D-03        -0.99905880      0.401595   -0.00000    0.00000   -0.00018    6
    8      0.179D-03      0.305D-04        -0.99905891      0.401550   -0.00000    0.00000   -0.00005    4
    9      0.333D-04      0.554D-05        -0.99905891      0.401554   -0.00000    0.00000    0.00000    5
   10      0.271D-05      0.541D-06        -0.99905891      0.401554   -0.00000    0.00000    0.00000    5
   11      0.940D-06      0.184D-06        -0.99905891      0.401554   -0.00000    0.00000   -0.00000    5

 Final alpha occupancy:   1
 Final beta  occupancy:   1

 !UHF STATE  1.1 Energy                -0.999058914089
 Nuclear energy                         0.20000000
 One-electron energy                   -1.39983607
 Two-electron energy                    0.20077715
 Virial quotient                       -1.00475038
 !UHF STATE  1.1 Dipole moment         -0.00000000     0.00000000    -0.00000004
 Dipole moment /Debye                  -0.00000000     0.00000000    -0.00000011

 ELECTRON ORBITALS FOR POSITIVE SPIN
 ===================================

   Orb  Occ    Energy       Coefficients

                            1 1s      1 1s      1 2px     1 2py     1 2pz     2 1s      2 1s      2 2px     2 2py     2 2pz  


   1.1   +    -0.4991     0.014517  0.000546 -0.000000  0.000000  0.000661  0.997619  0.000944 -0.000000 -0.000000 -0.000117

   2.1   0     0.0757     0.383081  0.646760 -0.000000  0.000000 -0.000299 -0.153228  0.011800  0.000000  0.000000 -0.013714

   3.1   0     0.5864    -0.338072  0.135941 -0.000000  0.000000  0.038549 -2.085515  2.319461  0.000000 -0.000000  0.003431

   4.1   0     0.7683    -2.285721  2.284058  0.000000  0.000000 -0.017664  0.394193 -0.566288 -0.000000  0.000000 -0.075508

   5.1   0     1.4428    -0.000000  0.000000  0.004311  0.005916 -0.000000 -0.000000  0.000000  0.588930  0.808150  0.000000

   6.1   0     1.4428    -0.000000  0.000000  0.005916 -0.004311 -0.000000  0.000000 -0.000000  0.808150 -0.588930  0.000000

   7.1   0     1.4574     0.272049 -0.330266 -0.000000  0.000000  0.131555 -0.029657  0.053801  0.000000  0.000000 -0.990820

   8.1   0     1.5729     0.000000 -0.000000  0.989366  0.145265  0.000000 -0.000000  0.000000 -0.007354 -0.001080 -0.000000

   9.1   0     1.5729    -0.000000  0.000000 -0.145265  0.989366  0.000000  0.000000 -0.000000  0.001080 -0.007354  0.000000

  10.1   0     1.5880    -0.085601  0.118336  0.000000 -0.000000  0.993105  0.206756 -0.270482  0.000000 -0.000000  0.133182

 ELECTRON ORBITALS FOR NEGATIVE SPIN
 ===================================

   Orb  Occ    Energy       Coefficients

                            1 1s      1 1s      1 2px     1 2py     1 2pz     2 1s      2 1s      2 2px     2 2py     2 2pz  


   1.1   -    -0.4991     0.997618  0.000944  0.000000 -0.000000  0.000117  0.014517  0.000547  0.000000 -0.000000 -0.000661

   2.1   0     0.0757     0.153228 -0.011800 -0.000000  0.000000 -0.013714 -0.383080 -0.646761 -0.000000  0.000000 -0.000299

   3.1   0     0.5864    -2.085516  2.319461  0.000000 -0.000000 -0.003431 -0.338071  0.135941  0.000000 -0.000000 -0.038549

   4.1   0     0.7683     0.394192 -0.566287 -0.000000  0.000000  0.075508 -2.285721  2.284058  0.000000 -0.000000  0.017664

   5.1   0     1.4428     0.000000 -0.000000  0.877090  0.480269  0.000000  0.000000 -0.000000  0.006420  0.003516 -0.000000

   6.1   0     1.4428     0.000000 -0.000000  0.480269 -0.877090 -0.000000 -0.000000  0.000000  0.003516 -0.006420  0.000000

   7.1   0     1.4574    -0.029657  0.053801 -0.000000 -0.000000  0.990820  0.272049 -0.330266 -0.000000  0.000000 -0.131554

   8.1   0     1.5729    -0.000000  0.000000 -0.005342  0.005169  0.000000  0.000000 -0.000000  0.718623 -0.695362  0.000000

   9.1   0     1.5729    -0.000000  0.000000  0.005169  0.005342 -0.000000 -0.000000  0.000000 -0.695362 -0.718623  0.000000

  10.1   0     1.5880     0.206756 -0.270482 -0.000000 -0.000000 -0.133181 -0.085601  0.118336  0.000000 -0.000000 -0.993105


 HOMO     -1.1    -0.499141 =     -13.5823eV
 LUMO      2.1     0.075713 =       2.0603eV
 LUMO-HOMO         0.574854 =      15.6426eV

 EXPECTATION VALUE OF S**2:             0.98544506

 NATURAL SPIN ORBITALS
 =====================

  Orbital  Occupation    Energy     Coefficients
    1.1     0.99270    -0.18582     1 1s   -0.04613     1 1s    0.00049     1 2pz   0.00066     2 1s    1.00224     2 1s    0.00092
                                    2 2pz  -0.00008
    2.1     0.00000     1.05511     1 1s   -0.04528     1 1s    0.17308     1 2px   0.68252     1 2pz   0.02808     2 1s    1.56055
                                    2 1s   -1.75047     2 2px  -0.00004     2 2pz   0.00635
    3.1     0.00000     1.51564     1 1s   -0.04331     1 1s    0.08153     1 2px  -0.00141     1 2pz   0.00597     2 1s    0.00575
                                    2 1s   -0.01509     2 2px   0.00000     2 2pz   1.00210
    4.1     0.00000     1.50787     1 2px   0.00001     1 2py  -0.00006     2 2px  -0.10037     2 2py   0.99495
    5.1    -0.00000     1.50787     1 2px  -0.00006     1 2py  -0.00001     2 2px   0.99495     2 2py   0.10037
    6.1    -0.00000     1.50787     1 2py   1.00000     2 2py  -0.00006
    7.1    -0.00000     1.51436     1 1s   -0.00431     1 1s    0.01209     1 2px   0.00122     1 2pz   1.00185     2 1s    0.02943
                                    2 1s   -0.06584     2 2px  -0.00000     2 2pz  -0.00311
    8.1    -0.00000     1.11432     1 1s    0.16684     1 1s   -0.30089     1 2px   0.72962     1 2pz  -0.02825     2 1s   -1.45600
                                    2 1s    1.64300     2 2px  -0.00004     2 2pz  -0.00591
    9.1    -0.00000     0.65687     1 1s   -2.12808     1 1s    2.37687     1 2px   0.04271     1 2pz   0.00539     2 1s   -0.06602
                                    2 1s   -0.09294     2 2px  -0.00000     2 2pz   0.03264
   10.1    -0.99270    -0.18582     1 1s    1.00224     1 1s    0.00092     1 2pz   0.00008     2 1s   -0.04614     2 1s    0.00049
                                    2 2pz  -0.00066

 NATURAL CHARGE ORBITALS
 =======================

 Occupation number threshold for pseudo-canonical orbitals: 1.9990 (occupied), 0.0010 (virtual)

 Number of pseudo-canonical occupied orbitals per symmetry:    0
 Number of active natural orbitals per symmetry:               2

   Orb     Occ        Energy       Coefficients

                                   1 1s      1 1s      1 2px     1 2py     1 2pz     2 1s      2 1s      2 2px     2 2py     2 2pz  


   1.1  1.12064    -0.223625     0.676067  0.000996 -0.000000 -0.000000  0.000520  0.676067  0.000996  0.000000 -0.000000 -0.000520

   2.1  0.87936    -0.148025     0.741311  0.000300  0.000000 -0.000000 -0.000410 -0.741312 -0.000299 -0.000000  0.000000 -0.000410

   3.1 -0.00000     0.620593    -1.475609  1.534705 -0.000000  0.000000  0.029597 -1.475609  1.534705  0.000000 -0.000000 -0.029597

   4.1  0.00000     0.682935    -1.525568  1.824373  0.000000 -0.000000 -0.047837  1.525568 -1.824372 -0.000000  0.000000 -0.047837

   5.1  0.00000     1.505352     0.126867 -0.151445  0.000000 -0.000000  0.707187  0.126868 -0.151445  0.000000  0.000000 -0.707185

   6.1  0.00000     1.506913     0.000000 -0.000000 -0.518539  0.480718  0.000000  0.000000 -0.000000 -0.518509  0.480690 -0.000000

   7.1  0.00000     1.506913    -0.000000  0.000000  0.480718  0.518539 -0.000000 -0.000000  0.000000  0.480690  0.518509  0.000000

   8.1  0.00000     1.508832    -0.000000  0.000000  0.310862 -0.635131 -0.000000 -0.000000  0.000000 -0.310881  0.635169  0.000000

   9.1  0.00000     1.508832    -0.000000  0.000000 -0.635131 -0.310862 -0.000000 -0.000000  0.000000  0.635169  0.310881  0.000000

  10.1  0.00000     1.539548    -0.199068  0.264929 -0.000000 -0.000000  0.708579  0.199067 -0.264928  0.000000 -0.000000  0.708581

 Natural orbitals saved to record    2100.3 (Orbital set 3)

 Orbital spaces for UNO-CAS (Min. occupation: 0.020  Max. occupation: 1.980):

 Closed:        0
 Active:        2


 **********************************************************************************************************************************
 DATASETS  * FILE   NREC   LENGTH (MB)   RECORD NAMES
              1      19       29.94       500      610      700      900      950      970     1000      129      960     1100   
                                          VAR    BASINP    GEOM    SYMINP    ZMAT    AOBASIS   BASIS     P2S    ABASIS      S 
                                         1400     1410     1200     1210     1080     1600     1650     1300     1700   
                                           T        V       H0       H01     AOSYM     SMH    MOLCAS    ERIS     OPER   

              3       5       14.77       500      610      700     1000     2100   
                                          VAR    BASINP    GEOM     BASIS     UHF  

 PROGRAMS   *        TOTAL   UHF-SCF   RHF-SCF       INT      FILE
 CPU TIMES  *         0.59      0.20      0.12      0.15      0.00
 REAL TIME  *         2.14 SEC
 DISK USED  *        46.93 MB
 **********************************************************************************************************************************

 Dump information in style XML to orbitals.xml                                                                    

 Variables will not be exported.
 Molecular orbitals read from record     2100.3  Type=UHF/ALPHA (state 1.1)
 Occupation numbers read from record     2100.3  Type=UHF/ALPHA (state 1.1)
 Orbital energies read from record       2100.3  Type=UHF/ALPHA (state 1.1)
 Redundancy group numbers read from rec  2100.3  Type=UHF/BETA (state 1.1)
 Molecular orbitals read from record     2100.3  Type=UHF/BETA (state 1.1)
 Occupation numbers read from record     2100.3  Type=UHF/BETA (state 1.1)
 Orbital energies read from record       2100.3  Type=UHF/BETA (state 1.1)
 Redundancy group numbers read from rec  2100.3  Type=UHF/BETA (state 1.1)
 Molecular orbitals read from record     2100.3  Type=UHF/NATURAL (state 1.1)
 Occupation numbers read from record     2100.3  Type=UHF/NATURAL (state 1.1)
 Orbital energies read from record       2100.3  Type=UHF/NATURAL (state 1.1)
 Redundancy group numbers read from rec  2100.3  Type=UHF/BETA (state 1.1)

 **********************************************************************************************************************************

 UHF/cc-pVDZ energy=     -0.999058914089

         UHF-SCF         RHF-SCF
     -0.99905891     -0.85242437
 **********************************************************************************************************************************
 Molpro calculation terminated
