
 Primary working directories    : /scr/yuriaoto/job.023609/molpro.oew8zkugwt
 Secondary working directories  : /scr/yuriaoto/job.023609/molpro.oew8zkugwt
 Wavefunction directory         : /scr/yuriaoto/job.023609/
 Main file repository           : /scr/yuriaoto/job.023609/molpro.oew8zkugwt/

 id        : yuriaoto

 Nodes             nprocs
 t-rex.ufabc.int.br    1

 Using customized tuning parameters: mindgm=8; mindgv=16; mindgc=1; mindgr=1; noblas=0; minvec=7
 default implementation of scratch files=df  


 Variables initialized (933), CPU time= 0.01 sec
 ***,
 memory,40,m
 gprint,orbital,basis,civector
 gthresh,printci=0.0,thrprint=0
 file,3,wfu.dat,old
 
 {bccd,SAVEORB=2150.2,print,CC_NORM_MAX=10.0
 thresh,printci=0.0,ENERGY=1.0E-10,COEFF=1.0E-12
 print,ref=1
 core,0
 wf,10,1,0;
 }
 
 {put,xml,orbitals.xml; orbital,2150.2; nosort; novariables}
 
 Commands  initialized (760), CPU time= 0.00 sec, 617 directives.
 Default parameters read. Elapsed time= 0.03 sec

 Checking input...
 Passed
1


                                         ***  PROGRAM SYSTEM MOLPRO  ***
                                       Copyright, TTI GmbH Stuttgart, 2015
                                    Version 2019.2 linked Abr  7 2019 15:10:35


 **********************************************************************************************************************************
 LABEL *                                                                                 
  64 bit serial version                                                                  DATE: 05-Jun-20          TIME: 21:35:51  
 **********************************************************************************************************************************

 SHA1:             3a8a58c585c929645742fb5a1b7541a4ad1da699
 **********************************************************************************************************************************


 THRESHOLDS:

 ZERO    =  1.00D-12  ONEINT  =  1.00D-12  TWOINT  =  1.00D-11  PREFAC  =  1.00D-14  XXXXXX  =  1.00D-09  EORDER  =  1.00D-04
 ENERGY  =  0.00D+00  ETEST   =  0.00D+00  EDENS   =  0.00D+00  THRDEDEF=  1.00D-06  GRADIENT=  1.00D-02  STEP    =  1.00D-03
 ORBITAL =  1.00D-05  CIVEC   =  1.00D-05  COEFF   =  1.00D-04  PRINTCI =  0.00D+00  PUNCHCI =  9.90D+01  OPTGRAD =  3.00D-04
 OPTENERG=  1.00D-06  OPTSTEP =  3.00D-04  THRGRAD =  1.00D-10  COMPRESS=  1.00D-11  VARMIN  =  1.00D-07  VARMAX  =  1.00D-03
 THRDOUB =  0.00D+00  THRDIV  =  1.00D-05  THRRED  =  1.00D-07  THRPSP  =  1.00D+00  THRDC   =  1.00D-10  THRCS   =  1.00D-10
 THRNRM  =  1.00D-08  THREQ   =  0.00D+00  THRDE   =  1.00D+00  THRREF  =  1.00D-05  SPARFAC =  1.00D+00  THRDLP  =  1.00D-07
 THRDIA  =  1.00D-10  THRDLS  =  1.00D-07  THRGPS  =  0.00D+00  THRKEX  =  0.00D+00  THRDIS  =  2.00D-01  THRVAR  =  1.00D-10
 THRLOC  =  1.00D-06  THRGAP  =  1.00D-06  THRLOCT = -1.00D+00  THRGAPT = -1.00D+00  THRORB  =  1.00D-06  THRMLTP =  0.00D+00
 THRCPQCI=  1.00D-10  KEXTA   =  0.00D+00  THRCOARS=  0.00D+00  SYMTOL  =  1.00D-06  GRADTOL =  1.00D-06  THROVL  =  1.00D-08
 THRORTH =  1.00D-08  GRID    =  1.00D-06  GRIDMAX =  1.00D-03  DTMAX   =  0.00D+00  THROCCDE=  1.00D-01  THROCCDE=  1.00D-01
 THRPRINT=  0.00D+00


 Variable memory set to   40000000 words,  buffer space 



 Permanent file  3  wfu.dat  assigned.  Implementation=df    Size= 14.09 MB


 PROGRAM * RESTART 


 Reading variables from file 3

 _FNUC           =      0.00000000
 _BASIS          =    6-31G
 _NELEC          =     10.00000000
 _PROGRAM        =    HF-SCF
 _DMZ            =      1.03598798
 _DMX_SCF        =      0.00000000
 _DMY_SCF        =      0.00000000
 _DMZ_SCF        =      1.03598798
 _HOMO           =      1.20000000
 _EHOMO          =     -0.50128600
 _LUMO           =      4.10000000
 _ELUMO          =      0.20310195
 _ENERGY         =    -75.98390244
 _ENERGY_METHOD  =    HF
 _ENERGY_BASIS   =    6-31G
 _ENUC           =      9.16842912
 _EPS1(1:3)      =    -20.56102543    -1.35503251    -0.56043835
 _EPS2           =     -0.50128600
 _EPS3           =     -0.70845397
 _IPROC_MPP      =      0.00000000
 _IPROC_MPPX     =      0.00000000
 _ORBITAL        =   2100.30000000
 _STATUS         =      1.00000000
 _DATE           =    21-Oct-19
 _LASTORB        =    RHF
 _OUTPUT         =    /scr/yuriaoto/job.022429/RHF.xml
 _PGROUP         =    C2v 
 _TIME           =    13:25:56
 R               =      0.96000000
 A               =    104.40000000

 Geometry written to block  1 of record 700


 **********************************************************************************************************************************
 DATASETS  * FILE   NREC   LENGTH (MB)   RECORD NAMES
              3       5       14.78       500      610      700     1000     2100   
                                          VAR    BASINP    GEOM     BASIS     RHF  

 PROGRAMS   *        TOTAL   RESTART
 CPU TIMES  *         0.11      0.03
 REAL TIME  *         0.15 SEC
 DISK USED  *        26.85 MB
 **********************************************************************************************************************************


 Recomputing integrals since basis changed


 Using spherical harmonics

 Library entry H      S 6-31G                selected for orbital group  1
 Library entry O      S 6-31G                selected for orbital group  2
 Library entry O      P 6-31G                selected for orbital group  2


 PROGRAM * SEWARD (Integral evaluation for generally contracted gaussian basis sets)     Author: Roland Lindh, 1990

 Geometry written to block  1 of record 700

 Orientation using atomic masses  
 Molecule type: Asymmetric top,     Order of principal axis = 2
 Symmetry elements: X,Y
 Rotational constants:     283.9621697    815.3763831    435.6978814 GHz  (calculated with average atomic masses)

 Point group  C2v 



 ATOMIC COORDINATES

 NR  ATOM    CHARGE       X              Y              Z

   1  H1      1.00    0.000000000   -1.433449507    0.987477933
   2  H2      1.00    0.000000000    1.433449507    0.987477933
   3  O       8.00    0.000000000    0.000000000   -0.124419479

 Bond lengths in Bohr (Angstrom)

 1-3  1.814137080  2-3  1.814137080
     ( 0.960000000)     ( 0.960000000)

 Bond angles

  1-3-2  104.40000000


 BASIS DATA

   Nr Sym  Nuc  Type         Exponents   Contraction coefficients

    1.1 A1    1  1s          18.731137     0.033495
              2  1s           2.825394     0.234727
                              0.640122     0.813757
    2.1 A1    1  1s           0.161278     1.000000
              2  1s    
    3.1 A1    3  1s        5484.671700     0.001831
                            825.234950     0.013950
                            188.046960     0.068445
                             52.964500     0.232714
                             16.897570     0.470193
                              5.799635     0.358521
    4.1 A1    3  1s          15.539616    -0.110778
                              3.599934    -0.148026
                              1.013762     1.130767
    5.1 A1    3  1s           0.270006     1.000000
    6.1 A1    3  2pz         15.539616     0.070874
                              3.599934     0.339753
                              1.013762     0.727159
    7.1 A1    3  2pz          0.270006     1.000000
    1.2 B1    3  2px         15.539616     0.070874
                              3.599934     0.339753
                              1.013762     0.727159
    2.2 B1    3  2px          0.270006     1.000000
    1.3 B2    1  1s          18.731137     0.033495
              2 -1s           2.825394     0.234727
                              0.640122     0.813757
    2.3 B2    1  1s           0.161278     1.000000
              2 -1s    
    3.3 B2    3  2py         15.539616     0.070874
                              3.599934     0.339753
                              1.013762     0.727159
    4.3 B2    3  2py          0.270006     1.000000

 NUCLEAR CHARGE:                   10
 NUMBER OF PRIMITIVE AOS:          30
 NUMBER OF SYMMETRY AOS:           30
 NUMBER OF CONTRACTIONS:           13   (    7A1  +    2B1  +    4B2  +    0A2  )
 NUMBER OF CORE ORBITALS:           1   (    1A1  +    0B1  +    0B2  +    0A2  )
 NUMBER OF VALENCE ORBITALS:        6   (    3A1  +    1B1  +    2B2  +    0A2  )


 NUCLEAR REPULSION ENERGY    9.16842912

 Eigenvalues of metric

         1 0.681E-01 0.322E+00 0.424E+00 0.681E+00 0.101E+01 0.163E+01 0.344E+01
         2 0.498E+00 0.150E+01
         3 0.120E+00 0.328E+00 0.742E+00 0.224E+01


 Contracted 2-electron integrals neglected if value below      1.0D-11
 AO integral compression algorithm  1   Integral accuracy      1.0D-11

     0.262 MB (compressed) written to integral file (100.0%)


 NUMBER OF SORTED TWO-ELECTRON INTEGRALS:       1649.     BUFFER LENGTH:  32768
 NUMBER OF SEGMENTS:   1  SEGMENT LENGTH:       1649      RECORD LENGTH: 524288

 Memory used in sort:       0.56 MW

 SORT1 READ        2701. AND WROTE        1487. INTEGRALS IN      1 RECORDS. CPU TIME:     0.00 SEC, REAL TIME:     0.01 SEC
 SORT2 READ        1487. AND WROTE        1649. INTEGRALS IN      1 RECORDS. CPU TIME:     0.01 SEC, REAL TIME:     0.00 SEC

 FILE SIZES:   FILE 1:    30.2 MBYTE,  FILE 4:     4.2 MBYTE,   TOTAL:     34.4 MBYTE

 OPERATOR DM      FOR CENTER  0  COORDINATES:    0.000000    0.000000    0.000000


 **********************************************************************************************************************************
 DATASETS  * FILE   NREC   LENGTH (MB)   RECORD NAMES
              1      19       29.97       500      700      610      900      950      970     1000      129      960     1100   
                                          VAR     GEOM    BASINP   SYMINP    ZMAT    AOBASIS   BASIS     P2S    ABASIS      S 
                                         1400     1410     1200     1210     1080     1600     1650     1300     1700   
                                           T        V       H0       H01     AOSYM     SMH    MOLCAS    ERIS     OPER   

              3       5       14.78       500      610      700     1000     2100   
                                          VAR    BASINP    GEOM     BASIS     RHF  

 PROGRAMS   *        TOTAL       INT   RESTART
 CPU TIMES  *         0.31      0.19      0.03
 REAL TIME  *         0.45 SEC
 DISK USED  *        49.46 MB
 **********************************************************************************************************************************


 PROGRAM * BCCD (Closed-shell Brueckner coupled-cluster)     Authors: C. Hampel, H.-J. Werner, 1991, M. Deegan, P.J. Knowles, 1992


 Input parameters for THRESH:

 ENERGY   =    1.00D-10
 COEFF    =    1.00D-12
 PRINTCI  =    0.000000
 THRPRINT =    0.000000

 Convergence thresholds:  THRVAR = 1.00D-24  THRDEN = 1.00D-10

 Number of closed-shell orbitals:   5 (   3   1   1 )
 Number of external orbitals:       8 (   4   1   3 )

 Molecular orbitals read from record     2100.3  Type=RHF/CANONICAL (state 1.1)

 Number of N-1 electron functions:               5
 Number of N-2 electron functions:              15
 Number of singly external CSFs:                16
 Number of doubly external CSFs:               265
 Total number of CSFs:                         282

 Brueckner orbitals will be computed and saved on record    2150.2

 Length of J-op  integral file:               0.00 MB
 Length of K-op  integral file:               0.04 MB

 Integral transformation finished. Total CPU:   0.00 sec, npass=  1  Memory used:   0.07 MW

 Reference energy:                    -75.98390244

 MP2 singles energy:                   -0.00000000
 MP2 singlet pair energy:              -0.08376114
 MP2 triplet pair energy:              -0.04529895
 MP2 correlation energy:               -0.12906009
 MP2 total energy:                    -76.11296253

 SCS-MP2 correlation energy:           -0.12869938   (PS=  1.200000  PT=  0.333333)
 SCS-MP2 total energy:                -76.11260183

 ITER.      SQ.NORM     CORR.ENERGY   TOTAL ENERGY   ENERGY CHANGE        DEN1      VAR(S)    VAR(P)  DIIS     TIME  TIME/IT
   1      1.04021760    -0.13426229   -76.11816473    -0.00520220    -0.00212452  0.33D-03  0.67D-03  1  1     0.01     0.00
   2      1.04308622    -0.13570856   -76.11917208    -0.00144627    -0.00412719  0.20D-04  0.11D-03  2  2     0.01     0.00
   3      1.04392928    -0.13619743   -76.11937866    -0.00048887    -0.00089418  0.26D-05  0.75D-05  3  3     0.02     0.00
   4      1.04401855    -0.13629844   -76.11937710    -0.00010101    -0.00009200  0.29D-06  0.42D-06  4  4     0.02     0.00
   5      1.04404233    -0.13630150   -76.11937925    -0.00000306    -0.00000901  0.67D-07  0.35D-07  5  5     0.02     0.00
   6      1.04403929    -0.13630567   -76.11937842    -0.00000418    -0.00000071  0.87D-08  0.27D-08  6  6     0.02     0.00
   7      1.04403805    -0.13630689   -76.11937800    -0.00000122     0.00000018  0.40D-09  0.32D-09  6  1     0.03     0.00
   8      1.04403775    -0.13630716   -76.11937794    -0.00000027     0.00000026  0.28D-10  0.25D-10  6  2     0.03     0.00
   9      1.04403776    -0.13630723   -76.11937793    -0.00000007    -0.00000001  0.18D-12  0.15D-11  6  3     0.03     0.00
  10      1.04403774    -0.13630722   -76.11937793     0.00000001     0.00000003  0.36D-13  0.86D-13  6  6     0.03     0.00
  11      1.04403773    -0.13630723   -76.11937793    -0.00000000     0.00000000  0.74D-15  0.29D-14  6  4     0.04     0.00
  12      1.04403773    -0.13630723   -76.11937793    -0.00000000    -0.00000000  0.25D-16  0.14D-15  6  5     0.04     0.00
  13      1.04403773    -0.13630723   -76.11937793    -0.00000000    -0.00000000  0.23D-17  0.43D-17  6  1     0.04     0.00
  14      1.04403773    -0.13630723   -76.11937793    -0.00000000    -0.00000000  0.77D-18  0.61D-18  6  2     0.04     0.00
  15      1.04403773    -0.13630723   -76.11937793    -0.00000000    -0.00000000  0.42D-19  0.24D-19  6  3     0.05     0.00
  16      1.04403773    -0.13630723   -76.11937793    -0.00000000    -0.00000000  0.32D-21  0.66D-21  6  6     0.05     0.00
  17      1.04403773    -0.13630723   -76.11937793     0.00000000    -0.00000000  0.16D-22  0.61D-22  6  4     0.05     0.00
  18      1.04403773    -0.13630723   -76.11937793    -0.00000000    -0.00000000  0.12D-23  0.54D-23  6  5     0.05     0.00
  19      1.04403773    -0.13630723   -76.11937793     0.00000000    -0.00000000  0.17D-24  0.24D-24  6  1     0.06     0.00

 Norm of t1 vector:      0.00000000      S-energy:    -0.00000000      T1 diagnostic:  0.00000000

 Orbital rotation generators (print threshold =  0.000E+00):

         I         SYM. A    A   T(IA)

         1         1         1     -0.00005404
         1         1         2     -0.00001955
         1         1         3      0.00011189
         1         1         4     -0.00014063
         2         1         1      0.00343670
         2         1         2     -0.00183072
         2         1         3     -0.00447666
         2         1         4     -0.00130740
         3         1         1      0.01021030
         3         1         2      0.00005706
         3         1         3     -0.00066734
         3         1         4     -0.00552701
         4         2         1      0.00543622
         5         3         1     -0.00695164
         5         3         2     -0.00261951
         5         3         3     -0.00906199

 Doubles amplitudes (print threshold =  0.000E+00):

         I         J         SYM. A    SYM. B    A         B      T(IJ, AB)

         1         1         1         1         1         1     -0.00023370
         1         1         1         1         1         2     -0.00034777
         1         1         1         1         1         3     -0.00002531
         1         1         1         1         1         4     -0.00044681
         1         1         1         1         2         1     -0.00034777
         1         1         1         1         2         2     -0.00063842
         1         1         1         1         2         3     -0.00038428
         1         1         1         1         2         4     -0.00045666
         1         1         1         1         3         1     -0.00002531
         1         1         1         1         3         2     -0.00038428
         1         1         1         1         3         3     -0.00074498
         1         1         1         1         3         4      0.00032804
         1         1         1         1         4         1     -0.00044681
         1         1         1         1         4         2     -0.00045666
         1         1         1         1         4         3      0.00032804
         1         1         1         1         4         4     -0.00093543
         1         1         2         2         1         1     -0.00100744
         1         1         3         3         1         1     -0.00016124
         1         1         3         3         1         2     -0.00004838
         1         1         3         3         1         3      0.00046416
         1         1         3         3         2         1     -0.00004838
         1         1         3         3         2         2      0.00000729
         1         1         3         3         2         3      0.00016176
         1         1         3         3         3         1      0.00046416
         1         1         3         3         3         2      0.00016176
         1         1         3         3         3         3     -0.00113525
         2         1         1         1         1         1     -0.00009783
         2         1         1         1         1         2     -0.00035896
         2         1         1         1         1         3     -0.00045679
         2         1         1         1         1         4      0.00001368
         2         1         1         1         2         1     -0.00018018
         2         1         1         1         2         2     -0.00051812
         2         1         1         1         2         3     -0.00063452
         2         1         1         1         2         4     -0.00000646
         2         1         1         1         3         1     -0.00023777
         2         1         1         1         3         2     -0.00047262
         2         1         1         1         3         3     -0.00034291
         2         1         1         1         3         4     -0.00020503
         2         1         1         1         4         1      0.00004715
         2         1         1         1         4         2     -0.00010000
         2         1         1         1         4         3     -0.00034899
         2         1         1         1         4         4      0.00027845
         2         1         2         2         1         1     -0.00094040
         2         1         3         3         1         1     -0.00029142
         2         1         3         3         1         2     -0.00009136
         2         1         3         3         1         3      0.00070692
         2         1         3         3         2         1     -0.00006046
         2         1         3         3         2         2      0.00000280
         2         1         3         3         2         3      0.00017991
         2         1         3         3         3         1      0.00043847
         2         1         3         3         3         2      0.00014873
         2         1         3         3         3         3     -0.00097985
         2         2         1         1         1         1     -0.01621036
         2         2         1         1         1         2     -0.01243147
         2         2         1         1         1         3      0.00107232
         2         2         1         1         1         4     -0.01014384
         2         2         1         1         2         1     -0.01243147
         2         2         1         1         2         2     -0.01519789
         2         2         1         1         2         3      0.00071393
         2         2         1         1         2         4     -0.00665255
         2         2         1         1         3         1      0.00107232
         2         2         1         1         3         2      0.00071393
         2         2         1         1         3         3     -0.00614934
         2         2         1         1         3         4      0.00172425
         2         2         1         1         4         1     -0.01014384
         2         2         1         1         4         2     -0.00665255
         2         2         1         1         4         3      0.00172425
         2         2         1         1         4         4     -0.01263042
         2         2         2         2         1         1     -0.00880549
         2         2         3         3         1         1     -0.00791482
         2         2         3         3         1         2     -0.00333170
         2         2         3         3         1         3      0.00712475
         2         2         3         3         2         1     -0.00333170
         2         2         3         3         2         2     -0.00731359
         2         2         3         3         2         3      0.00313504
         2         2         3         3         3         1      0.00712475
         2         2         3         3         3         2      0.00313504
         2         2         3         3         3         3     -0.00912662
         3         1         1         1         1         1     -0.00010158
         3         1         1         1         1         2     -0.00014821
         3         1         1         1         1         3     -0.00009008
         3         1         1         1         1         4     -0.00005762
         3         1         1         1         2         1      0.00005946
         3         1         1         1         2         2      0.00008326
         3         1         1         1         2         3      0.00000946
         3         1         1         1         2         4      0.00014335
         3         1         1         1         3         1      0.00030106
         3         1         1         1         3         2      0.00052878
         3         1         1         1         3         3      0.00029736
         3         1         1         1         3         4      0.00032122
         3         1         1         1         4         1     -0.00025632
         3         1         1         1         4         2     -0.00050957
         3         1         1         1         4         3     -0.00043288
         3         1         1         1         4         4     -0.00016201
         3         1         2         2         1         1      0.00036268
         3         1         3         3         1         1      0.00015323
         3         1         3         3         1         2      0.00005201
         3         1         3         3         1         3     -0.00036157
         3         1         3         3         2         1      0.00019125
         3         1         3         3         2         2      0.00005314
         3         1         3         3         2         3     -0.00041188
         3         1         3         3         3         1     -0.00016152
         3         1         3         3         3         2     -0.00006046
         3         1         3         3         3         3      0.00037260
         3         2         1         1         1         1     -0.01559401
         3         2         1         1         1         2     -0.01207030
         3         2         1         1         1         3     -0.00078551
         3         2         1         1         1         4     -0.00642898
         3         2         1         1         2         1     -0.01422573
         3         2         1         1         2         2     -0.01353214
         3         2         1         1         2         3      0.00640840
         3         2         1         1         2         4     -0.00986196
         3         2         1         1         3         1     -0.00895907
         3         2         1         1         3         2      0.00034655
         3         2         1         1         3         3      0.00835216
         3         2         1         1         3         4     -0.01370967
         3         2         1         1         4         1     -0.00187052
         3         2         1         1         4         2     -0.00408652
         3         2         1         1         4         3     -0.00680266
         3         2         1         1         4         4     -0.00020016
         3         2         2         2         1         1      0.00307532
         3         2         3         3         1         1      0.00232108
         3         2         3         3         1         2     -0.00091341
         3         2         3         3         1         3     -0.00043771
         3         2         3         3         2         1      0.00285896
         3         2         3         3         2         2     -0.00509507
         3         2         3         3         2         3      0.00121341
         3         2         3         3         3         1     -0.00158336
         3         2         3         3         3         2      0.00206250
         3         2         3         3         3         3      0.00236278
         3         3         1         1         1         1     -0.02166613
         3         3         1         1         1         2     -0.01520220
         3         3         1         1         1         3     -0.00767589
         3         3         1         1         1         4     -0.00217902
         3         3         1         1         2         1     -0.01520220
         3         3         1         1         2         2     -0.02259488
         3         3         1         1         2         3     -0.01814121
         3         3         1         1         2         4      0.00319104
         3         3         1         1         3         1     -0.00767589
         3         3         1         1         3         2     -0.01814121
         3         3         1         1         3         3     -0.03398086
         3         3         1         1         3         4      0.00767830
         3         3         1         1         4         1     -0.00217902
         3         3         1         1         4         2      0.00319104
         3         3         1         1         4         3      0.00767830
         3         3         1         1         4         4     -0.00665971
         3         3         2         2         1         1     -0.00593904
         3         3         3         3         1         1     -0.01757825
         3         3         3         3         1         2     -0.01361590
         3         3         3         3         1         3      0.00580656
         3         3         3         3         2         1     -0.01361590
         3         3         3         3         2         2     -0.01660371
         3         3         3         3         2         3      0.00414401
         3         3         3         3         3         1      0.00580656
         3         3         3         3         3         2      0.00414401
         3         3         3         3         3         3     -0.00523359
         4         4         1         1         1         1     -0.01273872
         4         4         1         1         1         2     -0.00675844
         4         4         1         1         1         3      0.00343871
         4         4         1         1         1         4     -0.00606122
         4         4         1         1         2         1     -0.00675844
         4         4         1         1         2         2     -0.00677761
         4         4         1         1         2         3      0.00099051
         4         4         1         1         2         4      0.00023106
         4         4         1         1         3         1      0.00343871
         4         4         1         1         3         2      0.00099051
         4         4         1         1         3         3     -0.00698644
         4         4         1         1         3         4      0.00234423
         4         4         1         1         4         1     -0.00606122
         4         4         1         1         4         2      0.00023106
         4         4         1         1         4         3      0.00234423
         4         4         1         1         4         4     -0.01278544
         4         4         2         2         1         1     -0.05332779
         4         4         3         3         1         1     -0.00488164
         4         4         3         3         1         2     -0.00183436
         4         4         3         3         1         3      0.00356698
         4         4         3         3         2         1     -0.00183436
         4         4         3         3         2         2     -0.00132127
         4         4         3         3         2         3     -0.00003130
         4         4         3         3         3         1      0.00356698
         4         4         3         3         3         2     -0.00003130
         4         4         3         3         3         3     -0.00475185
         5         5         1         1         1         1     -0.02041975
         5         5         1         1         1         2     -0.01454413
         5         5         1         1         1         3      0.00578716
         5         5         1         1         1         4     -0.00342086
         5         5         1         1         2         1     -0.01454413
         5         5         1         1         2         2     -0.02315692
         5         5         1         1         2         3      0.00890029
         5         5         1         1         2         4      0.00059481
         5         5         1         1         3         1      0.00578716
         5         5         1         1         3         2      0.00890029
         5         5         1         1         3         3     -0.00679040
         5         5         1         1         3         4      0.00116543
         5         5         1         1         4         1     -0.00342086
         5         5         1         1         4         2      0.00059481
         5         5         1         1         4         3      0.00116543
         5         5         1         1         4         4     -0.00525203
         5         5         2         2         1         1     -0.00325322
         5         5         3         3         1         1     -0.04221391
         5         5         3         3         1         2     -0.01782775
         5         5         3         3         1         3      0.02597668
         5         5         3         3         2         1     -0.01782775
         5         5         3         3         2         2     -0.02756404
         5         5         3         3         2         3      0.01044661
         5         5         3         3         3         1      0.02597668
         5         5         3         3         3         2      0.01044661
         5         5         3         3         3         3     -0.02763975
         4         1         1         2         1         1     -0.00046061
         4         1         1         2         2         1     -0.00046932
         4         1         1         2         3         1      0.00056124
         4         1         1         2         4         1     -0.00064696
         4         1         2         1         1         1      0.00010363
         4         1         2         1         1         2      0.00007350
         4         1         2         1         1         3     -0.00013202
         4         1         2         1         1         4      0.00026049
         4         2         1         2         1         1     -0.00962339
         4         2         1         2         2         1     -0.00510003
         4         2         1         2         3         1      0.00525895
         4         2         1         2         4         1     -0.01027218
         4         2         2         1         1         1     -0.01940668
         4         2         2         1         1         2     -0.01047962
         4         2         2         1         1         3      0.00777452
         4         2         2         1         1         4     -0.02043505
         4         3         1         2         1         1     -0.00066996
         4         3         1         2         2         1     -0.00419865
         4         3         1         2         3         1     -0.00947543
         4         3         1         2         4         1      0.00275110
         4         3         2         1         1         1     -0.01198542
         4         3         2         1         1         2     -0.01983728
         4         3         2         1         1         3     -0.02789780
         4         3         2         1         1         4      0.00497073
         5         1         1         3         1         1      0.00014378
         5         1         1         3         1         2      0.00005639
         5         1         1         3         1         3     -0.00028075
         5         1         1         3         2         1      0.00002297
         5         1         1         3         2         2      0.00001968
         5         1         1         3         2         3     -0.00003009
         5         1         1         3         3         1     -0.00011752
         5         1         1         3         3         2     -0.00005840
         5         1         1         3         3         3      0.00023287
         5         1         1         3         4         1      0.00038642
         5         1         1         3         4         2      0.00014152
         5         1         1         3         4         3     -0.00077635
         5         1         3         1         1         1     -0.00002782
         5         1         3         1         1         2     -0.00006718
         5         1         3         1         1         3     -0.00006073
         5         1         3         1         1         4     -0.00002377
         5         1         3         1         2         1     -0.00011489
         5         1         3         1         2         2     -0.00023412
         5         1         3         1         2         3     -0.00022802
         5         1         3         1         2         4     -0.00006399
         5         1         3         1         3         1      0.00010400
         5         1         3         1         3         2      0.00007589
         5         1         3         1         3         3     -0.00013096
         5         1         3         1         3         4      0.00024383
         5         2         1         3         1         1      0.01021413
         5         2         1         3         1         2      0.00576164
         5         2         1         3         1         3     -0.00977328
         5         2         1         3         2         1      0.00595351
         5         2         1         3         2         2      0.01237201
         5         2         1         3         2         3     -0.00714602
         5         2         1         3         3         1     -0.00309295
         5         2         1         3         3         2     -0.00525350
         5         2         1         3         3         3      0.00525822
         5         2         1         3         4         1      0.00573435
         5         2         1         3         4         2     -0.00002853
         5         2         1         3         4         3     -0.00710592
         5         2         3         1         1         1      0.01727804
         5         2         3         1         1         2      0.01104437
         5         2         3         1         1         3     -0.00563658
         5         2         3         1         1         4      0.01163116
         5         2         3         1         2         1      0.00245859
         5         2         3         1         2         2      0.01026834
         5         2         3         1         2         3     -0.00524757
         5         2         3         1         2         4      0.00137858
         5         2         3         1         3         1     -0.01542864
         5         2         3         1         3         2     -0.01153522
         5         2         3         1         3         3      0.00773316
         5         2         3         1         3         4     -0.01430748
         5         3         1         3         1         1      0.01418477
         5         3         1         3         1         2      0.01038301
         5         3         1         3         1         3     -0.00353283
         5         3         1         3         2         1      0.01384789
         5         3         1         3         2         2      0.01702425
         5         3         1         3         2         3     -0.00793485
         5         3         1         3         3         1      0.00078780
         5         3         1         3         3         2     -0.00553701
         5         3         1         3         3         3     -0.00371608
         5         3         1         3         4         1     -0.00217540
         5         3         1         3         4         2     -0.00213667
         5         3         1         3         4         3      0.00322636
         5         3         3         1         1         1      0.02190640
         5         3         3         1         1         2      0.01941398
         5         3         3         1         1         3      0.01609382
         5         3         3         1         1         4     -0.00180367
         5         3         3         1         2         1      0.01007971
         5         3         3         1         2         2      0.01445214
         5         3         3         1         2         3     -0.00082226
         5         3         3         1         2         4      0.00034157
         5         3         3         1         3         1     -0.01058461
         5         3         3         1         3         2     -0.01756639
         5         3         3         1         3         3     -0.01734780
         5         3         3         1         3         4      0.00416116
         5         4         2         3         1         1      0.00650575
         5         4         2         3         1         2      0.00119695
         5         4         2         3         1         3     -0.00757625
         5         4         3         2         1         1      0.02482935
         5         4         3         2         2         1      0.00364826
         5         4         3         2         3         1     -0.02638483


 RESULTS
 =======

  Reference energy                    -75.983070708173

  Correlated core orbitals:             1.1
  Orbital energies:                   -20.5739

  BCCD core-core energy                -0.000294045428
  BCCD core-valence energy             -0.000693600935
  BCCD valence correlation energy      -0.135319579291

  BCCD singlet pair energy             -0.099924027652
  BCCD triplet pair energy             -0.036383198003
  BCCD correlation energy              -0.136307225655

 !BCCD total energy                   -76.119377933828

 Approximate expectation values using Brueckner orbitals

 !BCCD(ref) STATE  1.1 Dipole momen     0.00000000     0.00000000     0.99909293
 Dipole moment /Debye                   0.00000000     0.00000000     2.53927461

 Brueckner orbitals saved on record           2150.2 (orbital set 1)
 Brueckner density (ref) saved on record      2150.2 (density set 1)

 Brueckner orbitals
 ==================

   Orb     Occ           Coefficients

                         1 1s      1 1s      2 1s      2 1s      2 1s      2 2pz     2 2pz  

   1.1    2.0000000    0.000156  0.002866  0.995765  0.022246 -0.008370  0.002071 -0.001917

   2.1    2.0000000    0.199760 -0.004741 -0.212043  0.469433  0.472589  0.114935  0.052172

   3.1    2.0000000    0.208927  0.133628  0.076459 -0.173028 -0.333502  0.549316  0.392160

                         2 2px     2 2px  

   1.2    2.0000000    0.636630  0.515369

                         1 1s      1 1s      2 2py     2 2py  

   1.3    2.0000000   -0.374422 -0.199227  0.512178  0.248629

 Timing summary (sec):

 STEP                 CPU(USER)    SYS     CPU(TOT)    WALL
 Transformation          0.03      0.02      0.05      0.03
 CCSD iterations         0.05      0.02      0.07      0.10

 Program statistics:

 Available memory in ccsd:                39999100
 Min. memory needed in ccsd:                  2470
 Max. memory used in ccsd:                    2517
 Max. memory used in cckext:                 35571 (19 integral passes)



 **********************************************************************************************************************************
 DATASETS  * FILE   NREC   LENGTH (MB)   RECORD NAMES
              1      20       29.98       500      700      610      900      950      970     1000      129      960     1100   
                                          VAR     GEOM    BASINP   SYMINP    ZMAT    AOBASIS   BASIS     P2S    ABASIS      S 
                                         1400     1410     1200     1210     1080     1600     1650     1300     1700     1380   
                                           T        V       H0       H01     AOSYM     SMH    MOLCAS    ERIS     OPER     JKOP   

              2       4        2.75       700     1000      520     2150   
                                         GEOM     BASIS   MCVARS    BCCD   

              3       5       14.78       500      610      700     1000     2100   
                                          VAR    BASINP    GEOM     BASIS     RHF  

 PROGRAMS   *        TOTAL      BCCD       INT   RESTART
 CPU TIMES  *         0.46      0.15      0.19      0.03
 REAL TIME  *         0.66 SEC
 DISK USED  *        49.46 MB
 **********************************************************************************************************************************

 Dump information in style XML to orbitals.xml                                                                    

 Variables will not be exported.
 Molecular orbitals read from record     2150.2  Type=BCCD/BRUECKNER (state 1.1)
 Occupation numbers read from record     2150.2  Type=BCCD/BRUECKNER (state 1.1)

 No orbital energies found for orbital set 0

 No redundancy group numbers found for orbital set 0

 **********************************************************************************************************************************

 BCCD/6-31G energy=    -76.119377933828

            BCCD
    -76.11937793
 **********************************************************************************************************************************
 Molpro calculation terminated
