
 Primary working directories    : /scr/yuriaoto/job.023606/molpro.1SY9USMbxb
 Secondary working directories  : /scr/yuriaoto/job.023606/molpro.1SY9USMbxb
 Wavefunction directory         : /scr/yuriaoto/job.023606/
 Main file repository           : /scr/yuriaoto/job.023606/molpro.1SY9USMbxb/

 id        : yuriaoto

 Nodes             nprocs
 t-rex.ufabc.int.br    1

 Using customized tuning parameters: mindgm=8; mindgv=16; mindgc=1; mindgr=1; noblas=0; minvec=7
 default implementation of scratch files=df  


 Variables initialized (933), CPU time= 0.01 sec
 ***,
 memory,40,m
 gprint,orbital,basis,civector
 gthresh,thrprint=0,printci=0.0
 file,3,wfu.dat,old
 
 {ccsd,CC_NORM_MAX=10.0
 nosingle
 thresh,printci=0.0,ENERGY=1.0E-10,COEFF=1.0E-12
 print,ref=1
 wf,10,1,0;
 }
 
 Commands  initialized (760), CPU time= 0.01 sec, 617 directives.
 Default parameters read. Elapsed time= 0.04 sec

 Checking input...
 Passed
1


                                         ***  PROGRAM SYSTEM MOLPRO  ***
                                       Copyright, TTI GmbH Stuttgart, 2015
                                    Version 2019.2 linked Abr  7 2019 15:10:35


 **********************************************************************************************************************************
 LABEL *                                                                                 
  64 bit serial version                                                                  DATE: 05-Jun-20          TIME: 21:35:49  
 **********************************************************************************************************************************

 SHA1:             3a8a58c585c929645742fb5a1b7541a4ad1da699
 **********************************************************************************************************************************


 THRESHOLDS:

 ZERO    =  1.00D-12  ONEINT  =  1.00D-12  TWOINT  =  1.00D-11  PREFAC  =  1.00D-14  XXXXXX  =  1.00D-09  EORDER  =  1.00D-04
 ENERGY  =  0.00D+00  ETEST   =  0.00D+00  EDENS   =  0.00D+00  THRDEDEF=  1.00D-06  GRADIENT=  1.00D-02  STEP    =  1.00D-03
 ORBITAL =  1.00D-05  CIVEC   =  1.00D-05  COEFF   =  1.00D-04  PRINTCI =  0.00D+00  PUNCHCI =  9.90D+01  OPTGRAD =  3.00D-04
 OPTENERG=  1.00D-06  OPTSTEP =  3.00D-04  THRGRAD =  1.00D-10  COMPRESS=  1.00D-11  VARMIN  =  1.00D-07  VARMAX  =  1.00D-03
 THRDOUB =  0.00D+00  THRDIV  =  1.00D-05  THRRED  =  1.00D-07  THRPSP  =  1.00D+00  THRDC   =  1.00D-10  THRCS   =  1.00D-10
 THRNRM  =  1.00D-08  THREQ   =  0.00D+00  THRDE   =  1.00D+00  THRREF  =  1.00D-05  SPARFAC =  1.00D+00  THRDLP  =  1.00D-07
 THRDIA  =  1.00D-10  THRDLS  =  1.00D-07  THRGPS  =  0.00D+00  THRKEX  =  0.00D+00  THRDIS  =  2.00D-01  THRVAR  =  1.00D-10
 THRLOC  =  1.00D-06  THRGAP  =  1.00D-06  THRLOCT = -1.00D+00  THRGAPT = -1.00D+00  THRORB  =  1.00D-06  THRMLTP =  0.00D+00
 THRCPQCI=  1.00D-10  KEXTA   =  0.00D+00  THRCOARS=  0.00D+00  SYMTOL  =  1.00D-06  GRADTOL =  1.00D-06  THROVL  =  1.00D-08
 THRORTH =  1.00D-08  GRID    =  1.00D-06  GRIDMAX =  1.00D-03  DTMAX   =  0.00D+00  THROCCDE=  1.00D-01  THROCCDE=  1.00D-01
 THRPRINT=  0.00D+00


 Variable memory set to   40000000 words,  buffer space 



 Permanent file  3  wfu.dat  assigned.  Implementation=df    Size= 14.09 MB


 PROGRAM * RESTART 


 Reading variables from file 3

 _FNUC           =      0.00000000
 _BASIS          =    6-31G
 _NELEC          =     10.00000000
 _PROGRAM        =    HF-SCF
 _DMZ            =      1.03598798
 _DMX_SCF        =      0.00000000
 _DMY_SCF        =      0.00000000
 _DMZ_SCF        =      1.03598798
 _HOMO           =      1.20000000
 _EHOMO          =     -0.50128600
 _LUMO           =      4.10000000
 _ELUMO          =      0.20310195
 _ENERGY         =    -75.98390244
 _ENERGY_METHOD  =    HF
 _ENERGY_BASIS   =    6-31G
 _ENUC           =      9.16842912
 _EPS1(1:3)      =    -20.56102543    -1.35503251    -0.56043835
 _EPS2           =     -0.50128600
 _EPS3           =     -0.70845397
 _IPROC_MPP      =      0.00000000
 _IPROC_MPPX     =      0.00000000
 _ORBITAL        =   2100.30000000
 _STATUS         =      1.00000000
 _DATE           =    21-Oct-19
 _LASTORB        =    RHF
 _OUTPUT         =    /scr/yuriaoto/job.022429/RHF.xml
 _PGROUP         =    C2v 
 _TIME           =    13:25:56
 R               =      0.96000000
 A               =    104.40000000

 Geometry written to block  1 of record 700


 **********************************************************************************************************************************
 DATASETS  * FILE   NREC   LENGTH (MB)   RECORD NAMES
              3       5       14.78       500      610      700     1000     2100   
                                          VAR    BASINP    GEOM     BASIS     RHF  

 PROGRAMS   *        TOTAL   RESTART
 CPU TIMES  *         0.11      0.01
 REAL TIME  *         0.14 SEC
 DISK USED  *        26.85 MB
 **********************************************************************************************************************************


 Recomputing integrals since basis changed


 Using spherical harmonics

 Library entry H      S 6-31G                selected for orbital group  1
 Library entry O      S 6-31G                selected for orbital group  2
 Library entry O      P 6-31G                selected for orbital group  2


 PROGRAM * SEWARD (Integral evaluation for generally contracted gaussian basis sets)     Author: Roland Lindh, 1990

 Geometry written to block  1 of record 700

 Orientation using atomic masses  
 Molecule type: Asymmetric top,     Order of principal axis = 2
 Symmetry elements: X,Y
 Rotational constants:     283.9621697    815.3763831    435.6978814 GHz  (calculated with average atomic masses)

 Point group  C2v 



 ATOMIC COORDINATES

 NR  ATOM    CHARGE       X              Y              Z

   1  H1      1.00    0.000000000   -1.433449507    0.987477933
   2  H2      1.00    0.000000000    1.433449507    0.987477933
   3  O       8.00    0.000000000    0.000000000   -0.124419479

 Bond lengths in Bohr (Angstrom)

 1-3  1.814137080  2-3  1.814137080
     ( 0.960000000)     ( 0.960000000)

 Bond angles

  1-3-2  104.40000000


 BASIS DATA

   Nr Sym  Nuc  Type         Exponents   Contraction coefficients

    1.1 A1    1  1s          18.731137     0.033495
              2  1s           2.825394     0.234727
                              0.640122     0.813757
    2.1 A1    1  1s           0.161278     1.000000
              2  1s    
    3.1 A1    3  1s        5484.671700     0.001831
                            825.234950     0.013950
                            188.046960     0.068445
                             52.964500     0.232714
                             16.897570     0.470193
                              5.799635     0.358521
    4.1 A1    3  1s          15.539616    -0.110778
                              3.599934    -0.148026
                              1.013762     1.130767
    5.1 A1    3  1s           0.270006     1.000000
    6.1 A1    3  2pz         15.539616     0.070874
                              3.599934     0.339753
                              1.013762     0.727159
    7.1 A1    3  2pz          0.270006     1.000000
    1.2 B1    3  2px         15.539616     0.070874
                              3.599934     0.339753
                              1.013762     0.727159
    2.2 B1    3  2px          0.270006     1.000000
    1.3 B2    1  1s          18.731137     0.033495
              2 -1s           2.825394     0.234727
                              0.640122     0.813757
    2.3 B2    1  1s           0.161278     1.000000
              2 -1s    
    3.3 B2    3  2py         15.539616     0.070874
                              3.599934     0.339753
                              1.013762     0.727159
    4.3 B2    3  2py          0.270006     1.000000

 NUCLEAR CHARGE:                   10
 NUMBER OF PRIMITIVE AOS:          30
 NUMBER OF SYMMETRY AOS:           30
 NUMBER OF CONTRACTIONS:           13   (    7A1  +    2B1  +    4B2  +    0A2  )
 NUMBER OF CORE ORBITALS:           1   (    1A1  +    0B1  +    0B2  +    0A2  )
 NUMBER OF VALENCE ORBITALS:        6   (    3A1  +    1B1  +    2B2  +    0A2  )


 NUCLEAR REPULSION ENERGY    9.16842912

 Eigenvalues of metric

         1 0.681E-01 0.322E+00 0.424E+00 0.681E+00 0.101E+01 0.163E+01 0.344E+01
         2 0.498E+00 0.150E+01
         3 0.120E+00 0.328E+00 0.742E+00 0.224E+01


 Contracted 2-electron integrals neglected if value below      1.0D-11
 AO integral compression algorithm  1   Integral accuracy      1.0D-11

     0.262 MB (compressed) written to integral file (100.0%)


 NUMBER OF SORTED TWO-ELECTRON INTEGRALS:       1649.     BUFFER LENGTH:  32768
 NUMBER OF SEGMENTS:   1  SEGMENT LENGTH:       1649      RECORD LENGTH: 524288

 Memory used in sort:       0.56 MW

 SORT1 READ        2701. AND WROTE        1487. INTEGRALS IN      1 RECORDS. CPU TIME:     0.00 SEC, REAL TIME:     0.00 SEC
 SORT2 READ        1487. AND WROTE        1649. INTEGRALS IN      1 RECORDS. CPU TIME:     0.00 SEC, REAL TIME:     0.00 SEC

 FILE SIZES:   FILE 1:    30.2 MBYTE,  FILE 4:     4.2 MBYTE,   TOTAL:     34.4 MBYTE

 OPERATOR DM      FOR CENTER  0  COORDINATES:    0.000000    0.000000    0.000000


 **********************************************************************************************************************************
 DATASETS  * FILE   NREC   LENGTH (MB)   RECORD NAMES
              1      19       29.97       500      700      610      900      950      970     1000      129      960     1100   
                                          VAR     GEOM    BASINP   SYMINP    ZMAT    AOBASIS   BASIS     P2S    ABASIS      S 
                                         1400     1410     1200     1210     1080     1600     1650     1300     1700   
                                           T        V       H0       H01     AOSYM     SMH    MOLCAS    ERIS     OPER   

              3       5       14.78       500      610      700     1000     2100   
                                          VAR    BASINP    GEOM     BASIS     RHF  

 PROGRAMS   *        TOTAL       INT   RESTART
 CPU TIMES  *         0.25      0.12      0.01
 REAL TIME  *         0.39 SEC
 DISK USED  *        49.46 MB
 **********************************************************************************************************************************


 PROGRAM * CCSD (Closed-shell coupled cluster)     Authors: C. Hampel, H.-J. Werner, 1991, M. Deegan, P.J. Knowles, 1992


 Input parameters for THRESH:

 ENERGY   =    1.00D-10
 COEFF    =    1.00D-12
 PRINTCI  =    0.000000
 THRPRINT =    0.000000

 Convergence thresholds:  THRVAR = 1.00D-24  THRDEN = 1.00D-10

 Number of core orbitals:           1 (   1   0   0 )
 Number of closed-shell orbitals:   4 (   2   1   1 )
 Number of external orbitals:       8 (   4   1   3 )

 Molecular orbitals read from record     2100.3  Type=RHF/CANONICAL (state 1.1)

 Number of N-1 electron functions:               0
 Number of N-2 electron functions:              10
 Number of singly external CSFs:                 0
 Number of doubly external CSFs:               164
 Total number of CSFs:                         165

 Length of J-op  integral file:               0.00 MB
 Length of K-op  integral file:               0.04 MB
 Length of 3-ext integral record:             0.00 MB

 Integral transformation finished. Total CPU:   0.00 sec, npass=  1  Memory used:   0.07 MW

 Reference energy:                    -75.98390244

 MP2 singlet pair energy:              -0.08318602
 MP2 triplet pair energy:              -0.04483730
 MP2 correlation energy:               -0.12802332
 MP2 total energy:                    -76.11192576

 SCS-MP2 correlation energy:           -0.12772199   (PS=  1.200000  PT=  0.333333)
 SCS-MP2 total energy:                -76.11162443

 ITER.      SQ.NORM     CORR.ENERGY   TOTAL ENERGY   ENERGY CHANGE        DEN1      VAR(S)    VAR(P)  DIIS     TIME  TIME/IT
   1      1.03989921    -0.13278475   -76.11668719    -0.00476143    -0.00225561  0.00D+00  0.67D-03  1  1     0.00     0.00
   2      1.04293565    -0.13393902   -76.11784147    -0.00115428    -0.00331667  0.00D+00  0.30D-04  2  2     0.00     0.00
   3      1.04334728    -0.13400145   -76.11790389    -0.00006242    -0.00034322  0.00D+00  0.16D-05  3  3     0.01     0.00
   4      1.04343723    -0.13399915   -76.11790160     0.00000230    -0.00005487  0.00D+00  0.44D-07  4  4     0.01     0.00
   5      1.04344614    -0.13399894   -76.11790139     0.00000021    -0.00000606  0.00D+00  0.24D-08  5  5     0.01     0.00
   6      1.04344492    -0.13399907   -76.11790151    -0.00000013     0.00000074  0.00D+00  0.10D-09  6  6     0.01     0.00
   7      1.04344499    -0.13399905   -76.11790149     0.00000002    -0.00000006  0.00D+00  0.34D-11  6  3     0.01     0.00
   8      1.04344497    -0.13399905   -76.11790150    -0.00000000     0.00000002  0.00D+00  0.13D-12  6  1     0.01     0.00
   9      1.04344496    -0.13399905   -76.11790150     0.00000000     0.00000000  0.00D+00  0.25D-14  6  2     0.01     0.00
  10      1.04344496    -0.13399905   -76.11790150     0.00000000    -0.00000000  0.00D+00  0.17D-15  6  4     0.01     0.00
  11      1.04344497    -0.13399905   -76.11790150     0.00000000    -0.00000000  0.00D+00  0.58D-17  6  5     0.01     0.00
  12      1.04344497    -0.13399905   -76.11790150    -0.00000000     0.00000000  0.00D+00  0.35D-18  6  6     0.01     0.00
  13      1.04344497    -0.13399905   -76.11790150    -0.00000000     0.00000000  0.00D+00  0.22D-19  6  3     0.01     0.00
  14      1.04344497    -0.13399905   -76.11790150    -0.00000000     0.00000000  0.00D+00  0.99D-21  6  1     0.02     0.00
  15      1.04344497    -0.13399905   -76.11790150     0.00000000    -0.00000000  0.00D+00  0.60D-22  6  2     0.02     0.00
  16      1.04344497    -0.13399905   -76.11790150     0.00000000    -0.00000000  0.00D+00  0.34D-23  6  4     0.02     0.00
  17      1.04344497    -0.13399905   -76.11790150     0.00000000    -0.00000000  0.00D+00  0.82D-25  6  5     0.02     0.00


 Doubles amplitudes (print threshold =  0.000E+00):

         I         J         SYM. A    SYM. B    A         B      T(IJ, AB)

         1         1         1         1         1         1     -0.01579704
         1         1         1         1         1         2     -0.01233717
         1         1         1         1         1         3      0.00101622
         1         1         1         1         1         4     -0.01011393
         1         1         1         1         2         1     -0.01233717
         1         1         1         1         2         2     -0.01520074
         1         1         1         1         2         3      0.00064588
         1         1         1         1         2         4     -0.00668341
         1         1         1         1         3         1      0.00101622
         1         1         1         1         3         2      0.00064588
         1         1         1         1         3         3     -0.00616923
         1         1         1         1         3         4      0.00166145
         1         1         1         1         4         1     -0.01011393
         1         1         1         1         4         2     -0.00668341
         1         1         1         1         4         3      0.00166145
         1         1         1         1         4         4     -0.01270741
         1         1         2         2         1         1     -0.00874276
         1         1         3         3         1         1     -0.00780916
         1         1         3         3         1         2     -0.00332518
         1         1         3         3         1         3      0.00721736
         1         1         3         3         2         1     -0.00332518
         1         1         3         3         2         2     -0.00729287
         1         1         3         3         2         3      0.00312643
         1         1         3         3         3         1      0.00721736
         1         1         3         3         3         2      0.00312643
         1         1         3         3         3         3     -0.00926667
         2         1         1         1         1         1     -0.01516786
         2         1         1         1         1         2     -0.01193426
         2         1         1         1         1         3     -0.00088421
         2         1         1         1         1         4     -0.00629341
         2         1         1         1         2         1     -0.01424479
         2         1         1         1         2         2     -0.01347600
         2         1         1         1         2         3      0.00640457
         2         1         1         1         2         4     -0.00993105
         2         1         1         1         3         1     -0.00898600
         2         1         1         1         3         2      0.00029678
         2         1         1         1         3         3      0.00832661
         2         1         1         1         3         4     -0.01376617
         2         1         1         1         4         1     -0.00191244
         2         1         1         1         4         2     -0.00412981
         2         1         1         1         4         3     -0.00679756
         2         1         1         1         4         4     -0.00030957
         2         1         2         2         1         1      0.00304651
         2         1         3         3         1         1      0.00232588
         2         1         3         3         1         2     -0.00095263
         2         1         3         3         1         3     -0.00063586
         2         1         3         3         2         1      0.00276204
         2         1         3         3         2         2     -0.00512489
         2         1         3         3         2         3      0.00099527
         2         1         3         3         3         1     -0.00163773
         2         1         3         3         3         2      0.00195717
         2         1         3         3         3         3      0.00250689
         2         2         1         1         1         1     -0.02061148
         2         2         1         1         1         2     -0.01475148
         2         2         1         1         1         3     -0.00723202
         2         2         1         1         1         4     -0.00240869
         2         2         1         1         2         1     -0.01475148
         2         2         1         1         2         2     -0.02255099
         2         2         1         1         2         3     -0.01830460
         2         2         1         1         2         4      0.00304949
         2         2         1         1         3         1     -0.00723202
         2         2         1         1         3         2     -0.01830460
         2         2         1         1         3         3     -0.03416662
         2         2         1         1         3         4      0.00757124
         2         2         1         1         4         1     -0.00240869
         2         2         1         1         4         2      0.00304949
         2         2         1         1         4         3      0.00757124
         2         2         1         1         4         4     -0.00665284
         2         2         2         2         1         1     -0.00594971
         2         2         3         3         1         1     -0.01702847
         2         2         3         3         1         2     -0.01341238
         2         2         3         3         1         3      0.00579954
         2         2         3         3         2         1     -0.01341238
         2         2         3         3         2         2     -0.01651714
         2         2         3         3         2         3      0.00407386
         2         2         3         3         3         1      0.00579954
         2         2         3         3         3         2      0.00407386
         2         2         3         3         3         3     -0.00532457
         3         3         1         1         1         1     -0.01267401
         3         3         1         1         1         2     -0.00682056
         3         3         1         1         1         3      0.00340342
         3         3         1         1         1         4     -0.00612057
         3         3         1         1         2         1     -0.00682056
         3         3         1         1         2         2     -0.00690302
         3         3         1         1         2         3      0.00093676
         3         3         1         1         2         4      0.00011450
         3         3         1         1         3         1      0.00340342
         3         3         1         1         3         2      0.00093676
         3         3         1         1         3         3     -0.00694089
         3         3         1         1         3         4      0.00238132
         3         3         1         1         4         1     -0.00612057
         3         3         1         1         4         2      0.00011450
         3         3         1         1         4         3      0.00238132
         3         3         1         1         4         4     -0.01273424
         3         3         2         2         1         1     -0.05327342
         3         3         3         3         1         1     -0.00481693
         3         3         3         3         1         2     -0.00178445
         3         3         3         3         1         3      0.00365416
         3         3         3         3         2         1     -0.00178445
         3         3         3         3         2         2     -0.00126327
         3         3         3         3         2         3      0.00003123
         3         3         3         3         3         1      0.00365416
         3         3         3         3         3         2      0.00003123
         3         3         3         3         3         3     -0.00487748
         4         4         1         1         1         1     -0.02033088
         4         4         1         1         1         2     -0.01460257
         4         4         1         1         1         3      0.00599428
         4         4         1         1         1         4     -0.00345188
         4         4         1         1         2         1     -0.01460257
         4         4         1         1         2         2     -0.02303578
         4         4         1         1         2         3      0.00901553
         4         4         1         1         2         4      0.00059382
         4         4         1         1         3         1      0.00599428
         4         4         1         1         3         2      0.00901553
         4         4         1         1         3         3     -0.00694058
         4         4         1         1         3         4      0.00113155
         4         4         1         1         4         1     -0.00345188
         4         4         1         1         4         2      0.00059382
         4         4         1         1         4         3      0.00113155
         4         4         1         1         4         4     -0.00523932
         4         4         2         2         1         1     -0.00324915
         4         4         3         3         1         1     -0.04120898
         4         4         3         3         1         2     -0.01779176
         4         4         3         3         1         3      0.02565317
         4         4         3         3         2         1     -0.01779176
         4         4         3         3         2         2     -0.02774487
         4         4         3         3         2         3      0.01013343
         4         4         3         3         3         1      0.02565317
         4         4         3         3         3         2      0.01013343
         4         4         3         3         3         3     -0.02766354
         3         1         1         2         1         1     -0.00956671
         3         1         1         2         2         1     -0.00508515
         3         1         1         2         3         1      0.00519130
         3         1         1         2         4         1     -0.01031138
         3         1         2         1         1         1     -0.01926072
         3         1         2         1         1         2     -0.01050837
         3         1         2         1         1         3      0.00769852
         3         1         2         1         1         4     -0.02047912
         3         2         1         2         1         1     -0.00053879
         3         2         1         2         2         1     -0.00414878
         3         2         1         2         3         1     -0.00945702
         3         2         1         2         4         1      0.00272622
         3         2         2         1         1         1     -0.01152964
         3         2         2         1         1         2     -0.01993882
         3         2         2         1         1         3     -0.02797119
         3         2         2         1         1         4      0.00479453
         4         1         1         3         1         1      0.01008314
         4         1         1         3         1         2      0.00584196
         4         1         1         3         1         3     -0.00971001
         4         1         1         3         2         1      0.00599786
         4         1         1         3         2         2      0.01239880
         4         1         1         3         2         3     -0.00697183
         4         1         1         3         3         1     -0.00301948
         4         1         1         3         3         2     -0.00526266
         4         1         1         3         3         3      0.00518546
         4         1         1         3         4         1      0.00562662
         4         1         1         3         4         2     -0.00011033
         4         1         1         3         4         3     -0.00716179
         4         1         3         1         1         1      0.01703851
         4         1         3         1         1         2      0.01097633
         4         1         3         1         1         3     -0.00559562
         4         1         3         1         1         4      0.01148764
         4         1         3         1         2         1      0.00263643
         4         1         3         1         2         2      0.01021560
         4         1         3         1         2         3     -0.00530637
         4         1         3         1         2         4      0.00129065
         4         1         3         1         3         1     -0.01545562
         4         1         3         1         3         2     -0.01147928
         4         1         3         1         3         3      0.00771091
         4         1         3         1         3         4     -0.01438305
         4         2         1         3         1         1      0.01372093
         4         2         1         3         1         2      0.01042620
         4         2         1         3         1         3     -0.00336892
         4         2         1         3         2         1      0.01356873
         4         2         1         3         2         2      0.01687124
         4         2         1         3         2         3     -0.00776850
         4         2         1         3         3         1      0.00060618
         4         2         1         3         3         2     -0.00576038
         4         2         1         3         3         3     -0.00378335
         4         2         1         3         4         1     -0.00205664
         4         2         1         3         4         2     -0.00205361
         4         2         1         3         4         3      0.00322847
         4         2         3         1         1         1      0.02096797
         4         2         3         1         1         2      0.01921059
         4         2         3         1         1         3      0.01581186
         4         2         3         1         1         4     -0.00160456
         4         2         3         1         2         1      0.00994557
         4         2         3         1         2         2      0.01426776
         4         2         3         1         2         3     -0.00096547
         4         2         3         1         2         4      0.00042446
         4         2         3         1         3         1     -0.01020483
         4         2         3         1         3         2     -0.01753329
         4         2         3         1         3         3     -0.01755274
         4         2         3         1         3         4      0.00409375
         4         3         2         3         1         1      0.00636035
         4         3         2         3         1         2      0.00111504
         4         3         2         3         1         3     -0.00755909
         4         3         3         2         1         1      0.02446548
         4         3         3         2         2         1      0.00357181
         4         3         3         2         3         1     -0.02651363


 RESULTS
 =======

  Reference energy                    -75.983902444804
  CCD singlet pair energy              -0.098239965352
  CCD triplet pair energy              -0.035759086699
  CCD correlation energy               -0.133999052051

 !CCD total energy                    -76.117901496855

 Timing summary (sec):

 STEP                 CPU(USER)    SYS     CPU(TOT)    WALL
 CCSD iterations         0.02      0.02      0.04      0.03

 Program statistics:

 Available memory in ccsd:                39999136
 Min. memory needed in ccsd:                  1826
 Max. memory used in ccsd:                    1826
 Max. memory used in cckext:                 34826 (17 integral passes)



 **********************************************************************************************************************************
 DATASETS  * FILE   NREC   LENGTH (MB)   RECORD NAMES
              1      20       29.98       500      700      610      900      950      970     1000      129      960     1100   
                                          VAR     GEOM    BASINP   SYMINP    ZMAT    AOBASIS   BASIS     P2S    ABASIS      S 
                                         1400     1410     1200     1210     1080     1600     1650     1300     1700     1380   
                                           T        V       H0       H01     AOSYM     SMH    MOLCAS    ERIS     OPER     JKOP   

              3       5       14.78       500      610      700     1000     2100   
                                          VAR    BASINP    GEOM     BASIS     RHF  

 PROGRAMS   *        TOTAL      CCSD       INT   RESTART
 CPU TIMES  *         0.34      0.09      0.12      0.01
 REAL TIME  *         0.51 SEC
 DISK USED  *        49.46 MB
 **********************************************************************************************************************************
 Molecular orbitals read from record     2100.3  Type=RHF/CANONICAL (state 1.1)
 Occupation numbers read from record     2100.3  Type=RHF/RHF (state 1.1)
 Orbital energies read from record       2100.3  Type=RHF/CANONICAL (state 1.1)
 Redundancy group numbers read from rec  2100.3  Type=RHF/RHF (state 1.1)

 CCSD/6-31G energy=    -76.117901496855

            CCSD
    -76.11790150
 **********************************************************************************************************************************
 Molpro calculation terminated
