
 Primary working directories    : /scr/yuriaoto/job.023608/molpro.UIxCgtEF3H
 Secondary working directories  : /scr/yuriaoto/job.023608/molpro.UIxCgtEF3H
 Wavefunction directory         : /scr/yuriaoto/job.023608/
 Main file repository           : /scr/yuriaoto/job.023608/molpro.UIxCgtEF3H/

 id        : yuriaoto

 Nodes             nprocs
 t-rex.ufabc.int.br    1

 Using customized tuning parameters: mindgm=8; mindgv=16; mindgc=1; mindgr=1; noblas=0; minvec=7
 default implementation of scratch files=df  


 Variables initialized (933), CPU time= 0.00 sec
 ***,
 memory,40,m
 gprint,orbital,basis,civector
 gthresh,thrprint=0,printci=0.0
 file,3,wfu.dat,old
 
 {ccsd,CC_NORM_MAX=10.0
 nosingle
 thresh,printci=0.0,ENERGY=1.0E-10,COEFF=1.0E-12
 print,ref=1
 core,0
 wf,10,1,0;
 }
 
 Commands  initialized (760), CPU time= 0.01 sec, 617 directives.
 Default parameters read. Elapsed time= 0.04 sec

 Checking input...
 Passed
1


                                         ***  PROGRAM SYSTEM MOLPRO  ***
                                       Copyright, TTI GmbH Stuttgart, 2015
                                    Version 2019.2 linked Abr  7 2019 15:10:35


 **********************************************************************************************************************************
 LABEL *                                                                                 
  64 bit serial version                                                                  DATE: 05-Jun-20          TIME: 21:35:50  
 **********************************************************************************************************************************

 SHA1:             3a8a58c585c929645742fb5a1b7541a4ad1da699
 **********************************************************************************************************************************


 THRESHOLDS:

 ZERO    =  1.00D-12  ONEINT  =  1.00D-12  TWOINT  =  1.00D-11  PREFAC  =  1.00D-14  XXXXXX  =  1.00D-09  EORDER  =  1.00D-04
 ENERGY  =  0.00D+00  ETEST   =  0.00D+00  EDENS   =  0.00D+00  THRDEDEF=  1.00D-06  GRADIENT=  1.00D-02  STEP    =  1.00D-03
 ORBITAL =  1.00D-05  CIVEC   =  1.00D-05  COEFF   =  1.00D-04  PRINTCI =  0.00D+00  PUNCHCI =  9.90D+01  OPTGRAD =  3.00D-04
 OPTENERG=  1.00D-06  OPTSTEP =  3.00D-04  THRGRAD =  1.00D-10  COMPRESS=  1.00D-11  VARMIN  =  1.00D-07  VARMAX  =  1.00D-03
 THRDOUB =  0.00D+00  THRDIV  =  1.00D-05  THRRED  =  1.00D-07  THRPSP  =  1.00D+00  THRDC   =  1.00D-10  THRCS   =  1.00D-10
 THRNRM  =  1.00D-08  THREQ   =  0.00D+00  THRDE   =  1.00D+00  THRREF  =  1.00D-05  SPARFAC =  1.00D+00  THRDLP  =  1.00D-07
 THRDIA  =  1.00D-10  THRDLS  =  1.00D-07  THRGPS  =  0.00D+00  THRKEX  =  0.00D+00  THRDIS  =  2.00D-01  THRVAR  =  1.00D-10
 THRLOC  =  1.00D-06  THRGAP  =  1.00D-06  THRLOCT = -1.00D+00  THRGAPT = -1.00D+00  THRORB  =  1.00D-06  THRMLTP =  0.00D+00
 THRCPQCI=  1.00D-10  KEXTA   =  0.00D+00  THRCOARS=  0.00D+00  SYMTOL  =  1.00D-06  GRADTOL =  1.00D-06  THROVL  =  1.00D-08
 THRORTH =  1.00D-08  GRID    =  1.00D-06  GRIDMAX =  1.00D-03  DTMAX   =  0.00D+00  THROCCDE=  1.00D-01  THROCCDE=  1.00D-01
 THRPRINT=  0.00D+00


 Variable memory set to   40000000 words,  buffer space 



 Permanent file  3  wfu.dat  assigned.  Implementation=df    Size= 14.09 MB


 PROGRAM * RESTART 


 Reading variables from file 3

 _FNUC           =      0.00000000
 _BASIS          =    6-31G
 _NELEC          =     10.00000000
 _PROGRAM        =    HF-SCF
 _DMZ            =      1.03598798
 _DMX_SCF        =      0.00000000
 _DMY_SCF        =      0.00000000
 _DMZ_SCF        =      1.03598798
 _HOMO           =      1.20000000
 _EHOMO          =     -0.50128600
 _LUMO           =      4.10000000
 _ELUMO          =      0.20310195
 _ENERGY         =    -75.98390244
 _ENERGY_METHOD  =    HF
 _ENERGY_BASIS   =    6-31G
 _ENUC           =      9.16842912
 _EPS1(1:3)      =    -20.56102543    -1.35503251    -0.56043835
 _EPS2           =     -0.50128600
 _EPS3           =     -0.70845397
 _IPROC_MPP      =      0.00000000
 _IPROC_MPPX     =      0.00000000
 _ORBITAL        =   2100.30000000
 _STATUS         =      1.00000000
 _DATE           =    21-Oct-19
 _LASTORB        =    RHF
 _OUTPUT         =    /scr/yuriaoto/job.022429/RHF.xml
 _PGROUP         =    C2v 
 _TIME           =    13:25:56
 R               =      0.96000000
 A               =    104.40000000

 Geometry written to block  1 of record 700


 **********************************************************************************************************************************
 DATASETS  * FILE   NREC   LENGTH (MB)   RECORD NAMES
              3       5       14.78       500      610      700     1000     2100   
                                          VAR    BASINP    GEOM     BASIS     RHF  

 PROGRAMS   *        TOTAL   RESTART
 CPU TIMES  *         0.11      0.02
 REAL TIME  *         0.12 SEC
 DISK USED  *        26.85 MB
 **********************************************************************************************************************************


 Recomputing integrals since basis changed


 Using spherical harmonics

 Library entry H      S 6-31G                selected for orbital group  1
 Library entry O      S 6-31G                selected for orbital group  2
 Library entry O      P 6-31G                selected for orbital group  2


 PROGRAM * SEWARD (Integral evaluation for generally contracted gaussian basis sets)     Author: Roland Lindh, 1990

 Geometry written to block  1 of record 700

 Orientation using atomic masses  
 Molecule type: Asymmetric top,     Order of principal axis = 2
 Symmetry elements: X,Y
 Rotational constants:     283.9621697    815.3763831    435.6978814 GHz  (calculated with average atomic masses)

 Point group  C2v 



 ATOMIC COORDINATES

 NR  ATOM    CHARGE       X              Y              Z

   1  H1      1.00    0.000000000   -1.433449507    0.987477933
   2  H2      1.00    0.000000000    1.433449507    0.987477933
   3  O       8.00    0.000000000    0.000000000   -0.124419479

 Bond lengths in Bohr (Angstrom)

 1-3  1.814137080  2-3  1.814137080
     ( 0.960000000)     ( 0.960000000)

 Bond angles

  1-3-2  104.40000000


 BASIS DATA

   Nr Sym  Nuc  Type         Exponents   Contraction coefficients

    1.1 A1    1  1s          18.731137     0.033495
              2  1s           2.825394     0.234727
                              0.640122     0.813757
    2.1 A1    1  1s           0.161278     1.000000
              2  1s    
    3.1 A1    3  1s        5484.671700     0.001831
                            825.234950     0.013950
                            188.046960     0.068445
                             52.964500     0.232714
                             16.897570     0.470193
                              5.799635     0.358521
    4.1 A1    3  1s          15.539616    -0.110778
                              3.599934    -0.148026
                              1.013762     1.130767
    5.1 A1    3  1s           0.270006     1.000000
    6.1 A1    3  2pz         15.539616     0.070874
                              3.599934     0.339753
                              1.013762     0.727159
    7.1 A1    3  2pz          0.270006     1.000000
    1.2 B1    3  2px         15.539616     0.070874
                              3.599934     0.339753
                              1.013762     0.727159
    2.2 B1    3  2px          0.270006     1.000000
    1.3 B2    1  1s          18.731137     0.033495
              2 -1s           2.825394     0.234727
                              0.640122     0.813757
    2.3 B2    1  1s           0.161278     1.000000
              2 -1s    
    3.3 B2    3  2py         15.539616     0.070874
                              3.599934     0.339753
                              1.013762     0.727159
    4.3 B2    3  2py          0.270006     1.000000

 NUCLEAR CHARGE:                   10
 NUMBER OF PRIMITIVE AOS:          30
 NUMBER OF SYMMETRY AOS:           30
 NUMBER OF CONTRACTIONS:           13   (    7A1  +    2B1  +    4B2  +    0A2  )
 NUMBER OF CORE ORBITALS:           1   (    1A1  +    0B1  +    0B2  +    0A2  )
 NUMBER OF VALENCE ORBITALS:        6   (    3A1  +    1B1  +    2B2  +    0A2  )


 NUCLEAR REPULSION ENERGY    9.16842912

 Eigenvalues of metric

         1 0.681E-01 0.322E+00 0.424E+00 0.681E+00 0.101E+01 0.163E+01 0.344E+01
         2 0.498E+00 0.150E+01
         3 0.120E+00 0.328E+00 0.742E+00 0.224E+01


 Contracted 2-electron integrals neglected if value below      1.0D-11
 AO integral compression algorithm  1   Integral accuracy      1.0D-11

     0.262 MB (compressed) written to integral file (100.0%)


 NUMBER OF SORTED TWO-ELECTRON INTEGRALS:       1649.     BUFFER LENGTH:  32768
 NUMBER OF SEGMENTS:   1  SEGMENT LENGTH:       1649      RECORD LENGTH: 524288

 Memory used in sort:       0.56 MW

 SORT1 READ        2701. AND WROTE        1487. INTEGRALS IN      1 RECORDS. CPU TIME:     0.00 SEC, REAL TIME:     0.00 SEC
 SORT2 READ        1487. AND WROTE        1649. INTEGRALS IN      1 RECORDS. CPU TIME:     0.00 SEC, REAL TIME:     0.00 SEC

 FILE SIZES:   FILE 1:    30.2 MBYTE,  FILE 4:     4.2 MBYTE,   TOTAL:     34.4 MBYTE

 OPERATOR DM      FOR CENTER  0  COORDINATES:    0.000000    0.000000    0.000000


 **********************************************************************************************************************************
 DATASETS  * FILE   NREC   LENGTH (MB)   RECORD NAMES
              1      19       29.97       500      700      610      900      950      970     1000      129      960     1100   
                                          VAR     GEOM    BASINP   SYMINP    ZMAT    AOBASIS   BASIS     P2S    ABASIS      S 
                                         1400     1410     1200     1210     1080     1600     1650     1300     1700   
                                           T        V       H0       H01     AOSYM     SMH    MOLCAS    ERIS     OPER   

              3       5       14.78       500      610      700     1000     2100   
                                          VAR    BASINP    GEOM     BASIS     RHF  

 PROGRAMS   *        TOTAL       INT   RESTART
 CPU TIMES  *         0.23      0.11      0.02
 REAL TIME  *         0.35 SEC
 DISK USED  *        49.46 MB
 **********************************************************************************************************************************


 PROGRAM * CCSD (Closed-shell coupled cluster)     Authors: C. Hampel, H.-J. Werner, 1991, M. Deegan, P.J. Knowles, 1992


 Input parameters for THRESH:

 ENERGY   =    1.00D-10
 COEFF    =    1.00D-12
 PRINTCI  =    0.000000
 THRPRINT =    0.000000

 Convergence thresholds:  THRVAR = 1.00D-24  THRDEN = 1.00D-10

 Number of closed-shell orbitals:   5 (   3   1   1 )
 Number of external orbitals:       8 (   4   1   3 )

 Molecular orbitals read from record     2100.3  Type=RHF/CANONICAL (state 1.1)

 Number of N-1 electron functions:               0
 Number of N-2 electron functions:              15
 Number of singly external CSFs:                 0
 Number of doubly external CSFs:               265
 Total number of CSFs:                         266

 Length of J-op  integral file:               0.00 MB
 Length of K-op  integral file:               0.04 MB
 Length of 3-ext integral record:             0.00 MB

 Integral transformation finished. Total CPU:   0.00 sec, npass=  1  Memory used:   0.07 MW

 Reference energy:                    -75.98390244

 MP2 singlet pair energy:              -0.08376114
 MP2 triplet pair energy:              -0.04529895
 MP2 correlation energy:               -0.12906009
 MP2 total energy:                    -76.11296253

 SCS-MP2 correlation energy:           -0.12869938   (PS=  1.200000  PT=  0.333333)
 SCS-MP2 total energy:                -76.11260183

 ITER.      SQ.NORM     CORR.ENERGY   TOTAL ENERGY   ENERGY CHANGE        DEN1      VAR(S)    VAR(P)  DIIS     TIME  TIME/IT
   1      1.03988473    -0.13369444   -76.11759688    -0.00463435    -0.00212452  0.00D+00  0.67D-03  1  1     0.01     0.00
   2      1.04281743    -0.13483996   -76.11874241    -0.00114553    -0.00321305  0.00D+00  0.31D-04  2  2     0.01     0.00
   3      1.04332880    -0.13490209   -76.11880454    -0.00006213    -0.00044589  0.00D+00  0.15D-05  3  3     0.01     0.00
   4      1.04341907    -0.13490334   -76.11880578    -0.00000125    -0.00005250  0.00D+00  0.52D-07  4  4     0.01     0.00
   5      1.04343027    -0.13490285   -76.11880529     0.00000049    -0.00000739  0.00D+00  0.28D-08  5  5     0.01     0.00
   6      1.04342946    -0.13490299   -76.11880544    -0.00000014     0.00000042  0.00D+00  0.11D-09  6  6     0.02     0.00
   7      1.04342937    -0.13490299   -76.11880543     0.00000001     0.00000006  0.00D+00  0.39D-11  6  1     0.02     0.00
   8      1.04342939    -0.13490298   -76.11880543     0.00000000    -0.00000002  0.00D+00  0.17D-12  6  2     0.02     0.00
   9      1.04342940    -0.13490298   -76.11880543     0.00000000    -0.00000001  0.00D+00  0.51D-14  6  3     0.02     0.00
  10      1.04342940    -0.13490298   -76.11880543    -0.00000000     0.00000000  0.00D+00  0.28D-15  6  4     0.02     0.00
  11      1.04342940    -0.13490298   -76.11880543    -0.00000000     0.00000000  0.00D+00  0.17D-16  6  5     0.02     0.00
  12      1.04342940    -0.13490298   -76.11880543    -0.00000000    -0.00000000  0.00D+00  0.14D-17  6  6     0.02     0.00
  13      1.04342940    -0.13490298   -76.11880543     0.00000000    -0.00000000  0.00D+00  0.71D-19  6  1     0.02     0.00
  14      1.04342940    -0.13490298   -76.11880543     0.00000000    -0.00000000  0.00D+00  0.44D-20  6  2     0.02     0.00
  15      1.04342940    -0.13490298   -76.11880543    -0.00000000     0.00000000  0.00D+00  0.23D-21  6  3     0.02     0.00
  16      1.04342940    -0.13490298   -76.11880543    -0.00000000     0.00000000  0.00D+00  0.93D-23  6  5     0.03     0.00
  17      1.04342940    -0.13490298   -76.11880543     0.00000000    -0.00000000  0.00D+00  0.24D-24  6  4     0.03     0.00


 Doubles amplitudes (print threshold =  0.000E+00):

         I         J         SYM. A    SYM. B    A         B      T(IJ, AB)

         1         1         1         1         1         1     -0.00022976
         1         1         1         1         1         2     -0.00034310
         1         1         1         1         1         3     -0.00002267
         1         1         1         1         1         4     -0.00044554
         1         1         1         1         2         1     -0.00034310
         1         1         1         1         2         2     -0.00064044
         1         1         1         1         2         3     -0.00038600
         1         1         1         1         2         4     -0.00046128
         1         1         1         1         3         1     -0.00002267
         1         1         1         1         3         2     -0.00038600
         1         1         1         1         3         3     -0.00074070
         1         1         1         1         3         4      0.00031831
         1         1         1         1         4         1     -0.00044554
         1         1         1         1         4         2     -0.00046128
         1         1         1         1         4         3      0.00031831
         1         1         1         1         4         4     -0.00093366
         1         1         2         2         1         1     -0.00099772
         1         1         3         3         1         1     -0.00015827
         1         1         3         3         1         2     -0.00004720
         1         1         3         3         1         3      0.00046204
         1         1         3         3         2         1     -0.00004720
         1         1         3         3         2         2      0.00000758
         1         1         3         3         2         3      0.00016103
         1         1         3         3         3         1      0.00046204
         1         1         3         3         3         2      0.00016103
         1         1         3         3         3         3     -0.00114868
         2         1         1         1         1         1     -0.00008852
         2         1         1         1         1         2     -0.00034677
         2         1         1         1         1         3     -0.00044514
         2         1         1         1         1         4      0.00001347
         2         1         1         1         2         1     -0.00017413
         2         1         1         1         2         2     -0.00051934
         2         1         1         1         2         3     -0.00063527
         2         1         1         1         2         4     -0.00001064
         2         1         1         1         3         1     -0.00023538
         2         1         1         1         3         2     -0.00047806
         2         1         1         1         3         3     -0.00034898
         2         1         1         1         3         4     -0.00020827
         2         1         1         1         4         1      0.00004856
         2         1         1         1         4         2     -0.00010134
         2         1         1         1         4         3     -0.00034930
         2         1         1         1         4         4      0.00027535
         2         1         2         2         1         1     -0.00092914
         2         1         3         3         1         1     -0.00028531
         2         1         3         3         1         2     -0.00008908
         2         1         3         3         1         3      0.00070306
         2         1         3         3         2         1     -0.00005829
         2         1         3         3         2         2      0.00000350
         2         1         3         3         2         3      0.00017804
         2         1         3         3         3         1      0.00044066
         2         1         3         3         3         2      0.00014982
         2         1         3         3         3         3     -0.00100032
         2         2         1         1         1         1     -0.01577668
         2         2         1         1         1         2     -0.01231642
         2         2         1         1         1         3      0.00102378
         2         2         1         1         1         4     -0.01009924
         2         2         1         1         2         1     -0.01231642
         2         2         1         1         2         2     -0.01517615
         2         2         1         1         2         3      0.00066084
         2         2         1         1         2         4     -0.00666955
         2         2         1         1         3         1      0.00102378
         2         2         1         1         3         2      0.00066084
         2         2         1         1         3         3     -0.00615162
         2         2         1         1         3         4      0.00166031
         2         2         1         1         4         1     -0.01009924
         2         2         1         1         4         2     -0.00666955
         2         2         1         1         4         3      0.00166031
         2         2         1         1         4         4     -0.01269225
         2         2         2         2         1         1     -0.00871174
         2         2         3         3         1         1     -0.00778840
         2         2         3         3         1         2     -0.00332144
         2         2         3         3         1         3      0.00718945
         2         2         3         3         2         1     -0.00332144
         2         2         3         3         2         2     -0.00729360
         2         2         3         3         2         3      0.00312036
         2         2         3         3         3         1      0.00718945
         2         2         3         3         3         2      0.00312036
         2         2         3         3         3         3     -0.00922598
         3         1         1         1         1         1     -0.00010041
         3         1         1         1         1         2     -0.00015223
         3         1         1         1         1         3     -0.00009514
         3         1         1         1         1         4     -0.00005889
         3         1         1         1         2         1      0.00005819
         3         1         1         1         2         2      0.00008184
         3         1         1         1         2         3      0.00000841
         3         1         1         1         2         4      0.00014277
         3         1         1         1         3         1      0.00029442
         3         1         1         1         3         2      0.00052690
         3         1         1         1         3         3      0.00029830
         3         1         1         1         3         4      0.00032202
         3         1         1         1         4         1     -0.00024883
         3         1         1         1         4         2     -0.00050755
         3         1         1         1         4         3     -0.00043323
         3         1         1         1         4         4     -0.00016339
         3         1         2         2         1         1      0.00035867
         3         1         3         3         1         1      0.00015055
         3         1         3         3         1         2      0.00005093
         3         1         3         3         1         3     -0.00036065
         3         1         3         3         2         1      0.00018883
         3         1         3         3         2         2      0.00005238
         3         1         3         3         2         3     -0.00041400
         3         1         3         3         3         1     -0.00016142
         3         1         3         3         3         2     -0.00006057
         3         1         3         3         3         3      0.00037838
         3         2         1         1         1         1     -0.01516202
         3         2         1         1         1         2     -0.01192865
         3         2         1         1         1         3     -0.00088036
         3         2         1         1         1         4     -0.00629294
         3         2         1         1         2         1     -0.01424520
         3         2         1         1         2         2     -0.01347893
         3         2         1         1         2         3      0.00639837
         3         2         1         1         2         4     -0.00992949
         3         2         1         1         3         1     -0.00899516
         3         2         1         1         3         2      0.00028157
         3         2         1         1         3         3      0.00830901
         3         2         1         1         3         4     -0.01376297
         3         2         1         1         4         1     -0.00190427
         3         2         1         1         4         2     -0.00411879
         3         2         1         1         4         3     -0.00678555
         3         2         1         1         4         4     -0.00031074
         3         2         2         2         1         1      0.00303465
         3         2         3         3         1         1      0.00231252
         3         2         3         3         1         2     -0.00095591
         3         2         3         3         1         3     -0.00062169
         3         2         3         3         2         1      0.00275103
         3         2         3         3         2         2     -0.00512681
         3         2         3         3         2         3      0.00100681
         3         2         3         3         3         1     -0.00162552
         3         2         3         3         3         2      0.00196131
         3         2         3         3         3         3      0.00249189
         3         3         1         1         1         1     -0.02061243
         3         3         1         1         1         2     -0.01474980
         3         3         1         1         1         3     -0.00722917
         3         3         1         1         1         4     -0.00240586
         3         3         1         1         2         1     -0.01474980
         3         3         1         1         2         2     -0.02253981
         3         3         1         1         2         3     -0.01828463
         3         3         1         1         2         4      0.00304596
         3         3         1         1         3         1     -0.00722917
         3         3         1         1         3         2     -0.01828463
         3         3         1         1         3         3     -0.03413412
         3         3         1         1         3         4      0.00755837
         3         3         1         1         4         1     -0.00240586
         3         3         1         1         4         2      0.00304596
         3         3         1         1         4         3      0.00755837
         3         3         1         1         4         4     -0.00664288
         3         3         2         2         1         1     -0.00591882
         3         3         3         3         1         1     -0.01699722
         3         3         3         3         1         2     -0.01339781
         3         3         3         3         1         3      0.00577017
         3         3         3         3         2         1     -0.01339781
         3         3         3         3         2         2     -0.01650917
         3         3         3         3         2         3      0.00406011
         3         3         3         3         3         1      0.00577017
         3         3         3         3         3         2      0.00406011
         3         3         3         3         3         3     -0.00529276
         4         4         1         1         1         1     -0.01264532
         4         4         1         1         1         2     -0.00679653
         4         4         1         1         1         3      0.00340683
         4         4         1         1         1         4     -0.00610594
         4         4         1         1         2         1     -0.00679653
         4         4         1         1         2         2     -0.00687875
         4         4         1         1         2         3      0.00094812
         4         4         1         1         2         4      0.00012592
         4         4         1         1         3         1      0.00340683
         4         4         1         1         3         2      0.00094812
         4         4         1         1         3         3     -0.00691673
         4         4         1         1         3         4      0.00237544
         4         4         1         1         4         1     -0.00610594
         4         4         1         1         4         2      0.00012592
         4         4         1         1         4         3      0.00237544
         4         4         1         1         4         4     -0.01272416
         4         4         2         2         1         1     -0.05324298
         4         4         3         3         1         1     -0.00479506
         4         4         3         3         1         2     -0.00178035
         4         4         3         3         1         3      0.00362749
         4         4         3         3         2         1     -0.00178035
         4         4         3         3         2         2     -0.00126491
         4         4         3         3         2         3      0.00002447
         4         4         3         3         3         1      0.00362749
         4         4         3         3         3         2      0.00002447
         4         4         3         3         3         3     -0.00484501
         5         5         1         1         1         1     -0.02031691
         5         5         1         1         1         2     -0.01459187
         5         5         1         1         1         3      0.00599851
         5         5         1         1         1         4     -0.00344210
         5         5         1         1         2         1     -0.01459187
         5         5         1         1         2         2     -0.02302302
         5         5         1         1         2         3      0.00902447
         5         5         1         1         2         4      0.00059760
         5         5         1         1         3         1      0.00599851
         5         5         1         1         3         2      0.00902447
         5         5         1         1         3         3     -0.00693309
         5         5         1         1         3         4      0.00112953
         5         5         1         1         4         1     -0.00344210
         5         5         1         1         4         2      0.00059760
         5         5         1         1         4         3      0.00112953
         5         5         1         1         4         4     -0.00522644
         5         5         2         2         1         1     -0.00323258
         5         5         3         3         1         1     -0.04119746
         5         5         3         3         1         2     -0.01778635
         5         5         3         3         1         3      0.02563989
         5         5         3         3         2         1     -0.01778635
         5         5         3         3         2         2     -0.02773964
         5         5         3         3         2         3      0.01012781
         5         5         3         3         3         1      0.02563989
         5         5         3         3         3         2      0.01012781
         5         5         3         3         3         3     -0.02764473
         4         1         1         2         1         1     -0.00046121
         4         1         1         2         2         1     -0.00047133
         4         1         1         2         3         1      0.00055485
         4         1         1         2         4         1     -0.00064914
         4         1         2         1         1         1      0.00010409
         4         1         2         1         1         2      0.00007510
         4         1         2         1         1         3     -0.00012943
         4         1         2         1         1         4      0.00026033
         4         2         1         2         1         1     -0.00955132
         4         2         1         2         2         1     -0.00507570
         4         2         1         2         3         1      0.00517578
         4         2         1         2         4         1     -0.01029594
         4         2         2         1         1         1     -0.01925285
         4         2         2         1         1         2     -0.01050284
         4         2         2         1         1         3      0.00769090
         4         2         2         1         1         4     -0.02046949
         4         3         1         2         1         1     -0.00055825
         4         3         1         2         2         1     -0.00416885
         4         3         1         2         3         1     -0.00945995
         4         3         1         2         4         1      0.00271505
         4         3         2         1         1         1     -0.01153166
         4         3         2         1         1         2     -0.01993070
         4         3         2         1         1         3     -0.02795407
         4         3         2         1         1         4      0.00479052
         5         1         1         3         1         1      0.00014005
         5         1         1         3         1         2      0.00005509
         5         1         1         3         1         3     -0.00027855
         5         1         1         3         2         1      0.00002323
         5         1         1         3         2         2      0.00001996
         5         1         1         3         2         3     -0.00003116
         5         1         1         3         3         1     -0.00011143
         5         1         1         3         3         2     -0.00005582
         5         1         1         3         3         3      0.00022460
         5         1         1         3         4         1      0.00037856
         5         1         1         3         4         2      0.00013825
         5         1         1         3         4         3     -0.00077430
         5         1         3         1         1         1     -0.00002760
         5         1         3         1         1         2     -0.00006845
         5         1         3         1         1         3     -0.00006280
         5         1         3         1         1         4     -0.00002378
         5         1         3         1         2         1     -0.00011227
         5         1         3         1         2         2     -0.00023519
         5         1         3         1         2         3     -0.00022964
         5         1         3         1         2         4     -0.00006570
         5         1         3         1         3         1      0.00010249
         5         1         3         1         3         2      0.00007470
         5         1         3         1         3         3     -0.00012905
         5         1         3         1         3         4      0.00024074
         5         2         1         3         1         1      0.01006977
         5         2         1         3         1         2      0.00583863
         5         2         1         3         1         3     -0.00969682
         5         2         1         3         2         1      0.00599579
         5         2         1         3         2         2      0.01239883
         5         2         1         3         2         3     -0.00696981
         5         2         1         3         3         1     -0.00301115
         5         2         1         3         3         2     -0.00525877
         5         2         1         3         3         3      0.00517658
         5         2         1         3         4         1      0.00560759
         5         2         1         3         4         2     -0.00011516
         5         2         1         3         4         3     -0.00714101
         5         2         3         1         1         1      0.01703661
         5         2         3         1         1         2      0.01097692
         5         2         3         1         1         3     -0.00559164
         5         2         3         1         1         4      0.01148371
         5         2         3         1         2         1      0.00264090
         5         2         3         1         2         2      0.01022136
         5         2         3         1         2         3     -0.00530033
         5         2         3         1         2         4      0.00129072
         5         2         3         1         3         1     -0.01545184
         5         2         3         1         3         2     -0.01147768
         5         2         3         1         3         3      0.00770859
         5         2         3         1         3         4     -0.01437694
         5         3         1         3         1         1      0.01373128
         5         3         1         3         1         2      0.01043126
         5         3         1         3         1         3     -0.00337906
         5         3         1         3         2         1      0.01357269
         5         3         1         3         2         2      0.01687083
         5         3         1         3         2         3     -0.00777611
         5         3         1         3         3         1      0.00060723
         5         3         1         3         3         2     -0.00576208
         5         3         1         3         3         3     -0.00378822
         5         3         1         3         4         1     -0.00204437
         5         3         1         3         4         2     -0.00204412
         5         3         1         3         4         3      0.00321745
         5         3         3         1         1         1      0.02096548
         5         3         3         1         1         2      0.01920415
         5         3         3         1         1         3      0.01580478
         5         3         3         1         1         4     -0.00160186
         5         3         3         1         2         1      0.00994574
         5         3         3         1         2         2      0.01426327
         5         3         3         1         2         3     -0.00097355
         5         3         3         1         2         4      0.00042976
         5         3         3         1         3         1     -0.01020158
         5         3         3         1         3         2     -0.01752256
         5         3         3         1         3         3     -0.01754240
         5         3         3         1         3         4      0.00409264
         5         4         2         3         1         1      0.00636985
         5         4         2         3         1         2      0.00111882
         5         4         2         3         1         3     -0.00757283
         5         4         3         2         1         1      0.02445949
         5         4         3         2         2         1      0.00356939
         5         4         3         2         3         1     -0.02649942


 RESULTS
 =======

  Reference energy                    -75.983902444804

  Correlated core orbitals:             1.1
  Orbital energies:                   -20.5610

  CCD core-core energy                 -0.000293260802
  CCD core-valence energy              -0.000689374854
  CCD valence correlation energy       -0.133920348402

  CCD singlet pair energy              -0.098739109773
  CCD triplet pair energy              -0.036163874285
  CCD correlation energy               -0.134902984058

 !CCD total energy                    -76.118805428862

 Timing summary (sec):

 STEP                 CPU(USER)    SYS     CPU(TOT)    WALL
 CCSD iterations         0.03      0.02      0.05      0.04

 Program statistics:

 Available memory in ccsd:                39999100
 Min. memory needed in ccsd:                  2470
 Max. memory used in ccsd:                    2517
 Max. memory used in cckext:                 35571 (17 integral passes)



 **********************************************************************************************************************************
 DATASETS  * FILE   NREC   LENGTH (MB)   RECORD NAMES
              1      20       29.99       500      700      610      900      950      970     1000      129      960     1100   
                                          VAR     GEOM    BASINP   SYMINP    ZMAT    AOBASIS   BASIS     P2S    ABASIS      S 
                                         1400     1410     1200     1210     1080     1600     1650     1300     1700     1380   
                                           T        V       H0       H01     AOSYM     SMH    MOLCAS    ERIS     OPER     JKOP   

              3       5       14.78       500      610      700     1000     2100   
                                          VAR    BASINP    GEOM     BASIS     RHF  

 PROGRAMS   *        TOTAL      CCSD       INT   RESTART
 CPU TIMES  *         0.33      0.11      0.11      0.02
 REAL TIME  *         0.46 SEC
 DISK USED  *        49.46 MB
 **********************************************************************************************************************************
 Molecular orbitals read from record     2100.3  Type=RHF/CANONICAL (state 1.1)
 Occupation numbers read from record     2100.3  Type=RHF/RHF (state 1.1)
 Orbital energies read from record       2100.3  Type=RHF/CANONICAL (state 1.1)
 Redundancy group numbers read from rec  2100.3  Type=RHF/RHF (state 1.1)

 CCSD/6-31G energy=    -76.118805428862

            CCSD
    -76.11880543
 **********************************************************************************************************************************
 Molpro calculation terminated
