
 Primary working directories    : /scr/yuriaoto/job.023370/molpro.kdpFHkGkrB
 Secondary working directories  : /scr/yuriaoto/job.023370/molpro.kdpFHkGkrB
 Wavefunction directory         : /scr/yuriaoto/job.023370/
 Main file repository           : /scr/yuriaoto/job.023370/molpro.kdpFHkGkrB/

 id        : yuriaoto

 Nodes             nprocs
 t-rex.ufabc.int.br    1

 Using customized tuning parameters: mindgm=8; mindgv=16; mindgc=1; mindgr=1; noblas=0; minvec=7
 default implementation of scratch files=df  


 Variables initialized (933), CPU time= 0.00 sec
 ***,
 memory,40,m
 gprint,orbital,basis,civector
 gthresh,thrprint=0,printci=0.0
 file,3,wfu.dat,old
 
 {ccsd,CC_NORM_MAX=10.0
 thresh,printci=0.0,ENERGY=1.0E-10,COEFF=1.0E-12
 print,ref=1
 core,0
 wf,10,1,0;
 }
 
 Commands  initialized (760), CPU time= 0.01 sec, 617 directives.
 Default parameters read. Elapsed time= 0.05 sec

 Checking input...
 Passed
1


                                         ***  PROGRAM SYSTEM MOLPRO  ***
                                       Copyright, TTI GmbH Stuttgart, 2015
                                    Version 2019.2 linked Abr  7 2019 15:10:35


 **********************************************************************************************************************************
 LABEL *                                                                                 
  64 bit serial version                                                                  DATE: 02-Jun-20          TIME: 00:09:38  
 **********************************************************************************************************************************

 SHA1:             3a8a58c585c929645742fb5a1b7541a4ad1da699
 **********************************************************************************************************************************


 THRESHOLDS:

 ZERO    =  1.00D-12  ONEINT  =  1.00D-12  TWOINT  =  1.00D-11  PREFAC  =  1.00D-14  XXXXXX  =  1.00D-09  EORDER  =  1.00D-04
 ENERGY  =  0.00D+00  ETEST   =  0.00D+00  EDENS   =  0.00D+00  THRDEDEF=  1.00D-06  GRADIENT=  1.00D-02  STEP    =  1.00D-03
 ORBITAL =  1.00D-05  CIVEC   =  1.00D-05  COEFF   =  1.00D-04  PRINTCI =  0.00D+00  PUNCHCI =  9.90D+01  OPTGRAD =  3.00D-04
 OPTENERG=  1.00D-06  OPTSTEP =  3.00D-04  THRGRAD =  1.00D-10  COMPRESS=  1.00D-11  VARMIN  =  1.00D-07  VARMAX  =  1.00D-03
 THRDOUB =  0.00D+00  THRDIV  =  1.00D-05  THRRED  =  1.00D-07  THRPSP  =  1.00D+00  THRDC   =  1.00D-10  THRCS   =  1.00D-10
 THRNRM  =  1.00D-08  THREQ   =  0.00D+00  THRDE   =  1.00D+00  THRREF  =  1.00D-05  SPARFAC =  1.00D+00  THRDLP  =  1.00D-07
 THRDIA  =  1.00D-10  THRDLS  =  1.00D-07  THRGPS  =  0.00D+00  THRKEX  =  0.00D+00  THRDIS  =  2.00D-01  THRVAR  =  1.00D-10
 THRLOC  =  1.00D-06  THRGAP  =  1.00D-06  THRLOCT = -1.00D+00  THRGAPT = -1.00D+00  THRORB  =  1.00D-06  THRMLTP =  0.00D+00
 THRCPQCI=  1.00D-10  KEXTA   =  0.00D+00  THRCOARS=  0.00D+00  SYMTOL  =  1.00D-06  GRADTOL =  1.00D-06  THROVL  =  1.00D-08
 THRORTH =  1.00D-08  GRID    =  1.00D-06  GRIDMAX =  1.00D-03  DTMAX   =  0.00D+00  THROCCDE=  1.00D-01  THROCCDE=  1.00D-01
 THRPRINT=  0.00D+00


 Variable memory set to   40000000 words,  buffer space 



 Permanent file  3  wfu.dat  assigned.  Implementation=df    Size= 14.09 MB


 PROGRAM * RESTART 


 Reading variables from file 3

 _FNUC           =      0.00000000
 _BASIS          =    6-31G
 _NELEC          =     10.00000000
 _PROGRAM        =    HF-SCF
 _DMZ            =      1.03598798
 _DMX_SCF        =      0.00000000
 _DMY_SCF        =      0.00000000
 _DMZ_SCF        =      1.03598798
 _HOMO           =      1.20000000
 _EHOMO          =     -0.50128600
 _LUMO           =      4.10000000
 _ELUMO          =      0.20310195
 _ENERGY         =    -75.98390244
 _ENERGY_METHOD  =    HF
 _ENERGY_BASIS   =    6-31G
 _ENUC           =      9.16842912
 _EPS1(1:3)      =    -20.56102543    -1.35503251    -0.56043835
 _EPS2           =     -0.50128600
 _EPS3           =     -0.70845397
 _IPROC_MPP      =      0.00000000
 _IPROC_MPPX     =      0.00000000
 _ORBITAL        =   2100.30000000
 _STATUS         =      1.00000000
 _DATE           =    21-Oct-19
 _LASTORB        =    RHF
 _OUTPUT         =    /scr/yuriaoto/job.022429/RHF.xml
 _PGROUP         =    C2v 
 _TIME           =    13:25:56
 R               =      0.96000000
 A               =    104.40000000

 Geometry written to block  1 of record 700


 **********************************************************************************************************************************
 DATASETS  * FILE   NREC   LENGTH (MB)   RECORD NAMES
              3       5       14.78       500      610      700     1000     2100   
                                          VAR    BASINP    GEOM     BASIS     RHF  

 PROGRAMS   *        TOTAL   RESTART
 CPU TIMES  *         0.12      0.02
 REAL TIME  *         0.14 SEC
 DISK USED  *        26.85 MB
 **********************************************************************************************************************************


 Recomputing integrals since basis changed


 Using spherical harmonics

 Library entry H      S 6-31G                selected for orbital group  1
 Library entry O      S 6-31G                selected for orbital group  2
 Library entry O      P 6-31G                selected for orbital group  2


 PROGRAM * SEWARD (Integral evaluation for generally contracted gaussian basis sets)     Author: Roland Lindh, 1990

 Geometry written to block  1 of record 700

 Orientation using atomic masses  
 Molecule type: Asymmetric top,     Order of principal axis = 2
 Symmetry elements: X,Y
 Rotational constants:     283.9621697    815.3763831    435.6978814 GHz  (calculated with average atomic masses)

 Point group  C2v 



 ATOMIC COORDINATES

 NR  ATOM    CHARGE       X              Y              Z

   1  H1      1.00    0.000000000   -1.433449507    0.987477933
   2  H2      1.00    0.000000000    1.433449507    0.987477933
   3  O       8.00    0.000000000    0.000000000   -0.124419479

 Bond lengths in Bohr (Angstrom)

 1-3  1.814137080  2-3  1.814137080
     ( 0.960000000)     ( 0.960000000)

 Bond angles

  1-3-2  104.40000000


 BASIS DATA

   Nr Sym  Nuc  Type         Exponents   Contraction coefficients

    1.1 A1    1  1s          18.731137     0.033495
              2  1s           2.825394     0.234727
                              0.640122     0.813757
    2.1 A1    1  1s           0.161278     1.000000
              2  1s    
    3.1 A1    3  1s        5484.671700     0.001831
                            825.234950     0.013950
                            188.046960     0.068445
                             52.964500     0.232714
                             16.897570     0.470193
                              5.799635     0.358521
    4.1 A1    3  1s          15.539616    -0.110778
                              3.599934    -0.148026
                              1.013762     1.130767
    5.1 A1    3  1s           0.270006     1.000000
    6.1 A1    3  2pz         15.539616     0.070874
                              3.599934     0.339753
                              1.013762     0.727159
    7.1 A1    3  2pz          0.270006     1.000000
    1.2 B1    3  2px         15.539616     0.070874
                              3.599934     0.339753
                              1.013762     0.727159
    2.2 B1    3  2px          0.270006     1.000000
    1.3 B2    1  1s          18.731137     0.033495
              2 -1s           2.825394     0.234727
                              0.640122     0.813757
    2.3 B2    1  1s           0.161278     1.000000
              2 -1s    
    3.3 B2    3  2py         15.539616     0.070874
                              3.599934     0.339753
                              1.013762     0.727159
    4.3 B2    3  2py          0.270006     1.000000

 NUCLEAR CHARGE:                   10
 NUMBER OF PRIMITIVE AOS:          30
 NUMBER OF SYMMETRY AOS:           30
 NUMBER OF CONTRACTIONS:           13   (    7A1  +    2B1  +    4B2  +    0A2  )
 NUMBER OF CORE ORBITALS:           1   (    1A1  +    0B1  +    0B2  +    0A2  )
 NUMBER OF VALENCE ORBITALS:        6   (    3A1  +    1B1  +    2B2  +    0A2  )


 NUCLEAR REPULSION ENERGY    9.16842912

 Eigenvalues of metric

         1 0.681E-01 0.322E+00 0.424E+00 0.681E+00 0.101E+01 0.163E+01 0.344E+01
         2 0.498E+00 0.150E+01
         3 0.120E+00 0.328E+00 0.742E+00 0.224E+01


 Contracted 2-electron integrals neglected if value below      1.0D-11
 AO integral compression algorithm  1   Integral accuracy      1.0D-11

     0.262 MB (compressed) written to integral file (100.0%)


 NUMBER OF SORTED TWO-ELECTRON INTEGRALS:       1649.     BUFFER LENGTH:  32768
 NUMBER OF SEGMENTS:   1  SEGMENT LENGTH:       1649      RECORD LENGTH: 524288

 Memory used in sort:       0.56 MW

 SORT1 READ        2701. AND WROTE        1487. INTEGRALS IN      1 RECORDS. CPU TIME:     0.00 SEC, REAL TIME:     0.00 SEC
 SORT2 READ        1487. AND WROTE        1649. INTEGRALS IN      1 RECORDS. CPU TIME:     0.01 SEC, REAL TIME:     0.01 SEC

 FILE SIZES:   FILE 1:    30.2 MBYTE,  FILE 4:     4.2 MBYTE,   TOTAL:     34.4 MBYTE

 OPERATOR DM      FOR CENTER  0  COORDINATES:    0.000000    0.000000    0.000000


 **********************************************************************************************************************************
 DATASETS  * FILE   NREC   LENGTH (MB)   RECORD NAMES
              1      19       29.97       500      700      610      900      950      970     1000      129      960     1100   
                                          VAR     GEOM    BASINP   SYMINP    ZMAT    AOBASIS   BASIS     P2S    ABASIS      S 
                                         1400     1410     1200     1210     1080     1600     1650     1300     1700   
                                           T        V       H0       H01     AOSYM     SMH    MOLCAS    ERIS     OPER   

              3       5       14.78       500      610      700     1000     2100   
                                          VAR    BASINP    GEOM     BASIS     RHF  

 PROGRAMS   *        TOTAL       INT   RESTART
 CPU TIMES  *         0.27      0.15      0.02
 REAL TIME  *         1.34 SEC
 DISK USED  *        49.46 MB
 **********************************************************************************************************************************


 PROGRAM * CCSD (Closed-shell coupled cluster)     Authors: C. Hampel, H.-J. Werner, 1991, M. Deegan, P.J. Knowles, 1992


 Input parameters for THRESH:

 ENERGY   =    1.00D-10
 COEFF    =    1.00D-12
 PRINTCI  =    0.000000
 THRPRINT =    0.000000

 Convergence thresholds:  THRVAR = 1.00D-24  THRDEN = 1.00D-10

 Number of closed-shell orbitals:   5 (   3   1   1 )
 Number of external orbitals:       8 (   4   1   3 )

 Molecular orbitals read from record     2100.3  Type=RHF/CANONICAL (state 1.1)

 Number of N-1 electron functions:               5
 Number of N-2 electron functions:              15
 Number of singly external CSFs:                16
 Number of doubly external CSFs:               265
 Total number of CSFs:                         282

 Length of J-op  integral file:               0.00 MB
 Length of K-op  integral file:               0.04 MB
 Length of 3-ext integral record:             0.00 MB

 Integral transformation finished. Total CPU:   0.00 sec, npass=  1  Memory used:   0.07 MW

 Reference energy:                    -75.98390244

 MP2 singlet pair energy:              -0.08376114
 MP2 triplet pair energy:              -0.04529895
 MP2 correlation energy:               -0.12906009
 MP2 total energy:                    -76.11296253

 SCS-MP2 correlation energy:           -0.12869938   (PS=  1.200000  PT=  0.333333)
 SCS-MP2 total energy:                -76.11260183

 ITER.      SQ.NORM     CORR.ENERGY   TOTAL ENERGY   ENERGY CHANGE        DEN1      VAR(S)    VAR(P)  DIIS     TIME  TIME/IT
   1      1.04020505    -0.13426229   -76.11816473    -0.00520220    -0.00211229  0.33D-03  0.67D-03  1  1     0.02     0.01
   2      1.04379041    -0.13548816   -76.11939060    -0.00122587    -0.00368308  0.70D-05  0.55D-04  2  2     0.02     0.00
   3      1.04462932    -0.13559581   -76.11949826    -0.00010765    -0.00065145  0.16D-05  0.22D-05  3  3     0.03     0.00
   4      1.04478015    -0.13559803   -76.11950047    -0.00000221    -0.00007377  0.16D-06  0.13D-06  4  4     0.03     0.00
   5      1.04481773    -0.13559595   -76.11949839     0.00000208    -0.00001462  0.32D-07  0.84D-08  5  5     0.03     0.00
   6      1.04482400    -0.13559579   -76.11949824     0.00000015    -0.00000022  0.27D-08  0.67D-09  6  6     0.04     0.00
   7      1.04482620    -0.13559567   -76.11949812     0.00000012    -0.00000004  0.14D-09  0.44D-10  6  1     0.04     0.00
   8      1.04482678    -0.13559565   -76.11949810     0.00000002    -0.00000004  0.40D-11  0.51D-11  6  2     0.04     0.00
   9      1.04482692    -0.13559564   -76.11949809     0.00000001    -0.00000004  0.89D-13  0.21D-12  6  5     0.04     0.00
  10      1.04482695    -0.13559564   -76.11949809     0.00000000    -0.00000001  0.20D-14  0.11D-13  6  3     0.05     0.00
  11      1.04482695    -0.13559564   -76.11949809     0.00000000    -0.00000000  0.36D-16  0.22D-15  6  4     0.05     0.00
  12      1.04482695    -0.13559564   -76.11949809     0.00000000    -0.00000000  0.50D-17  0.16D-16  6  6     0.05     0.00
  13      1.04482695    -0.13559564   -76.11949809     0.00000000    -0.00000000  0.11D-17  0.70D-18  6  1     0.06     0.00
  14      1.04482695    -0.13559564   -76.11949809     0.00000000    -0.00000000  0.20D-18  0.32D-19  6  2     0.06     0.00
  15      1.04482695    -0.13559564   -76.11949809     0.00000000    -0.00000000  0.24D-19  0.63D-20  6  5     0.06     0.00
  16      1.04482695    -0.13559564   -76.11949809     0.00000000    -0.00000000  0.12D-20  0.35D-21  6  3     0.07     0.00
  17      1.04482695    -0.13559564   -76.11949809     0.00000000    -0.00000000  0.49D-22  0.55D-22  6  4     0.07     0.00
  18      1.04482695    -0.13559564   -76.11949809     0.00000000     0.00000000  0.15D-23  0.37D-23  6  6     0.07     0.00
  19      1.04482695    -0.13559564   -76.11949809     0.00000000     0.00000000  0.23D-25  0.13D-24  6  1     0.07     0.00

 Norm of t1 vector:      0.02700124      S-energy:    -0.00000000      T1 diagnostic:  0.00603766
                                                                       D1 diagnostic:  0.01284669

 Singles amplitudes (print threshold =  0.000E+00):

         I         SYM. A    A   T(IA)

         1         1         1     -0.00005617
         1         1         2     -0.00002657
         1         1         3      0.00010836
         1         1         4     -0.00014079
         2         1         1      0.00378264
         2         1         2     -0.00163368
         2         1         3     -0.00461005
         2         1         4     -0.00109574
         3         1         1      0.01077412
         3         1         2      0.00043487
         3         1         3     -0.00028466
         3         1         4     -0.00554727
         4         2         1      0.00599626
         5         3         1     -0.00773246
         5         3         2     -0.00283489
         5         3         3     -0.00861168

 Doubles amplitudes (print threshold =  0.000E+00):

         I         J         SYM. A    SYM. B    A         B      T(IJ, AB)

         1         1         1         1         1         1     -0.00023424
         1         1         1         1         1         2     -0.00034851
         1         1         1         1         1         3     -0.00002556
         1         1         1         1         1         4     -0.00044720
         1         1         1         1         2         1     -0.00034851
         1         1         1         1         2         2     -0.00063923
         1         1         1         1         2         3     -0.00038444
         1         1         1         1         2         4     -0.00045707
         1         1         1         1         3         1     -0.00002556
         1         1         1         1         3         2     -0.00038444
         1         1         1         1         3         3     -0.00074543
         1         1         1         1         3         4      0.00032822
         1         1         1         1         4         1     -0.00044720
         1         1         1         1         4         2     -0.00045707
         1         1         1         1         4         3      0.00032822
         1         1         1         1         4         4     -0.00093583
         1         1         2         2         1         1     -0.00100783
         1         1         3         3         1         1     -0.00016195
         1         1         3         3         1         2     -0.00004864
         1         1         3         3         1         3      0.00046516
         1         1         3         3         2         1     -0.00004864
         1         1         3         3         2         2      0.00000705
         1         1         3         3         2         3      0.00016213
         1         1         3         3         3         1      0.00046516
         1         1         3         3         3         2      0.00016213
         1         1         3         3         3         3     -0.00113639
         2         1         1         1         1         1     -0.00009815
         2         1         1         1         1         2     -0.00035960
         2         1         1         1         1         3     -0.00045761
         2         1         1         1         1         4      0.00001376
         2         1         1         1         2         1     -0.00018057
         2         1         1         1         2         2     -0.00051849
         2         1         1         1         2         3     -0.00063492
         2         1         1         1         2         4     -0.00000630
         2         1         1         1         3         1     -0.00023833
         2         1         1         1         3         2     -0.00047303
         2         1         1         1         3         3     -0.00034291
         2         1         1         1         3         4     -0.00020525
         2         1         1         1         4         1      0.00004738
         2         1         1         1         4         2     -0.00009966
         2         1         1         1         4         3     -0.00034907
         2         1         1         1         4         4      0.00027875
         2         1         2         2         1         1     -0.00094095
         2         1         3         3         1         1     -0.00029249
         2         1         3         3         1         2     -0.00009175
         2         1         3         3         1         3      0.00070824
         2         1         3         3         2         1     -0.00006081
         2         1         3         3         2         2      0.00000256
         2         1         3         3         2         3      0.00018035
         2         1         3         3         3         1      0.00043919
         2         1         3         3         3         2      0.00014902
         2         1         3         3         3         3     -0.00098033
         2         2         1         1         1         1     -0.01622970
         2         2         1         1         1         2     -0.01243704
         2         2         1         1         1         3      0.00107704
         2         2         1         1         1         4     -0.01015136
         2         2         1         1         2         1     -0.01243704
         2         2         1         1         2         2     -0.01520270
         2         2         1         1         2         3      0.00071553
         2         2         1         1         2         4     -0.00664978
         2         2         1         1         3         1      0.00107704
         2         2         1         1         3         2      0.00071553
         2         2         1         1         3         3     -0.00615881
         2         2         1         1         3         4      0.00172983
         2         2         1         1         4         1     -0.01015136
         2         2         1         1         4         2     -0.00664978
         2         2         1         1         4         3      0.00172983
         2         2         1         1         4         4     -0.01263259
         2         2         2         2         1         1     -0.00880921
         2         2         3         3         1         1     -0.00793385
         2         2         3         3         1         2     -0.00333435
         2         2         3         3         1         3      0.00713205
         2         2         3         3         2         1     -0.00333435
         2         2         3         3         2         2     -0.00731703
         2         2         3         3         2         3      0.00313525
         2         2         3         3         3         1      0.00713205
         2         2         3         3         3         2      0.00313525
         2         2         3         3         3         3     -0.00912799
         3         1         1         1         1         1     -0.00010133
         3         1         1         1         1         2     -0.00014778
         3         1         1         1         1         3     -0.00009010
         3         1         1         1         1         4     -0.00005729
         3         1         1         1         2         1      0.00005982
         3         1         1         1         2         2      0.00008381
         3         1         1         1         2         3      0.00000943
         3         1         1         1         2         4      0.00014365
         3         1         1         1         3         1      0.00030126
         3         1         1         1         3         2      0.00052901
         3         1         1         1         3         3      0.00029753
         3         1         1         1         3         4      0.00032122
         3         1         1         1         4         1     -0.00025626
         3         1         1         1         4         2     -0.00050930
         3         1         1         1         4         3     -0.00043290
         3         1         1         1         4         4     -0.00016193
         3         1         2         2         1         1      0.00036276
         3         1         3         3         1         1      0.00015359
         3         1         3         3         1         2      0.00005214
         3         1         3         3         1         3     -0.00036207
         3         1         3         3         2         1      0.00019158
         3         1         3         3         2         2      0.00005326
         3         1         3         3         2         3     -0.00041235
         3         1         3         3         3         1     -0.00016178
         3         1         3         3         3         2     -0.00006065
         3         1         3         3         3         3      0.00037277
         3         2         1         1         1         1     -0.01562976
         3         2         1         1         1         2     -0.01207798
         3         2         1         1         1         3     -0.00076730
         3         2         1         1         1         4     -0.00644580
         3         2         1         1         2         1     -0.01423428
         3         2         1         1         2         2     -0.01353603
         3         2         1         1         2         3      0.00642580
         3         2         1         1         2         4     -0.00986235
         3         2         1         1         3         1     -0.00897040
         3         2         1         1         3         2      0.00034900
         3         2         1         1         3         3      0.00836073
         3         2         1         1         3         4     -0.01372094
         3         2         1         1         4         1     -0.00186307
         3         2         1         1         4         2     -0.00407686
         3         2         1         1         4         3     -0.00680807
         3         2         1         1         4         4     -0.00019703
         3         2         2         2         1         1      0.00307583
         3         2         3         3         1         1      0.00233058
         3         2         3         3         1         2     -0.00091315
         3         2         3         3         1         3     -0.00044057
         3         2         3         3         2         1      0.00286988
         3         2         3         3         2         2     -0.00510360
         3         2         3         3         2         3      0.00121368
         3         2         3         3         3         1     -0.00159094
         3         2         3         3         3         2      0.00206288
         3         2         3         3         3         3      0.00237036
         3         3         1         1         1         1     -0.02172498
         3         3         1         1         1         2     -0.01521605
         3         3         1         1         1         3     -0.00770344
         3         3         1         1         1         4     -0.00216972
         3         3         1         1         2         1     -0.01521605
         3         3         1         1         2         2     -0.02258784
         3         3         1         1         2         3     -0.01814897
         3         3         1         1         2         4      0.00319853
         3         3         1         1         3         1     -0.00770344
         3         3         1         1         3         2     -0.01814897
         3         3         1         1         3         3     -0.03401165
         3         3         1         1         3         4      0.00768073
         3         3         1         1         4         1     -0.00216972
         3         3         1         1         4         2      0.00319853
         3         3         1         1         4         3      0.00768073
         3         3         1         1         4         4     -0.00665714
         3         3         2         2         1         1     -0.00594040
         3         3         3         3         1         1     -0.01756589
         3         3         3         3         1         2     -0.01360943
         3         3         3         3         1         3      0.00579504
         3         3         3         3         2         1     -0.01360943
         3         3         3         3         2         2     -0.01660718
         3         3         3         3         2         3      0.00413143
         3         3         3         3         3         1      0.00579504
         3         3         3         3         3         2      0.00413143
         3         3         3         3         3         3     -0.00523696
         4         4         1         1         1         1     -0.01272747
         4         4         1         1         1         2     -0.00674997
         4         4         1         1         1         3      0.00343988
         4         4         1         1         1         4     -0.00606286
         4         4         1         1         2         1     -0.00674997
         4         4         1         1         2         2     -0.00676928
         4         4         1         1         2         3      0.00098808
         4         4         1         1         2         4      0.00023004
         4         4         1         1         3         1      0.00343988
         4         4         1         1         3         2      0.00098808
         4         4         1         1         3         3     -0.00699394
         4         4         1         1         3         4      0.00233775
         4         4         1         1         4         1     -0.00606286
         4         4         1         1         4         2      0.00023004
         4         4         1         1         4         3      0.00233775
         4         4         1         1         4         4     -0.01278959
         4         4         2         2         1         1     -0.05337553
         4         4         3         3         1         1     -0.00488177
         4         4         3         3         1         2     -0.00182986
         4         4         3         3         1         3      0.00356738
         4         4         3         3         2         1     -0.00182986
         4         4         3         3         2         2     -0.00131306
         4         4         3         3         2         3     -0.00003738
         4         4         3         3         3         1      0.00356738
         4         4         3         3         3         2     -0.00003738
         4         4         3         3         3         3     -0.00475232
         5         5         1         1         1         1     -0.02044504
         5         5         1         1         1         2     -0.01453967
         5         5         1         1         1         3      0.00580935
         5         5         1         1         1         4     -0.00341469
         5         5         1         1         2         1     -0.01453967
         5         5         1         1         2         2     -0.02316439
         5         5         1         1         2         3      0.00891969
         5         5         1         1         2         4      0.00060496
         5         5         1         1         3         1      0.00580935
         5         5         1         1         3         2      0.00891969
         5         5         1         1         3         3     -0.00681535
         5         5         1         1         3         4      0.00115549
         5         5         1         1         4         1     -0.00341469
         5         5         1         1         4         2      0.00060496
         5         5         1         1         4         3      0.00115549
         5         5         1         1         4         4     -0.00525142
         5         5         2         2         1         1     -0.00325514
         5         5         3         3         1         1     -0.04228637
         5         5         3         3         1         2     -0.01781777
         5         5         3         3         1         3      0.02594969
         5         5         3         3         2         1     -0.01781777
         5         5         3         3         2         2     -0.02759830
         5         5         3         3         2         3      0.01041789
         5         5         3         3         3         1      0.02594969
         5         5         3         3         3         2      0.01041789
         5         5         3         3         3         3     -0.02759019
         4         1         1         2         1         1     -0.00046068
         4         1         1         2         2         1     -0.00046935
         4         1         1         2         3         1      0.00056159
         4         1         1         2         4         1     -0.00064695
         4         1         2         1         1         1      0.00010370
         4         1         2         1         1         2      0.00007377
         4         1         2         1         1         3     -0.00013203
         4         1         2         1         1         4      0.00026042
         4         2         1         2         1         1     -0.00962427
         4         2         1         2         2         1     -0.00509915
         4         2         1         2         3         1      0.00526451
         4         2         1         2         4         1     -0.01027185
         4         2         2         1         1         1     -0.01943785
         4         2         2         1         1         2     -0.01049067
         4         2         2         1         1         3      0.00779020
         4         2         2         1         1         4     -0.02044943
         4         3         1         2         1         1     -0.00067214
         4         3         1         2         2         1     -0.00419382
         4         3         1         2         3         1     -0.00947889
         4         3         1         2         4         1      0.00274959
         4         3         2         1         1         1     -0.01204943
         4         3         2         1         1         2     -0.01985983
         4         3         2         1         1         3     -0.02792567
         4         3         2         1         1         4      0.00497572
         5         1         1         3         1         1      0.00014371
         5         1         1         3         1         2      0.00005630
         5         1         1         3         1         3     -0.00028060
         5         1         1         3         2         1      0.00002276
         5         1         1         3         2         2      0.00001958
         5         1         1         3         2         3     -0.00002975
         5         1         1         3         3         1     -0.00011734
         5         1         1         3         3         2     -0.00005825
         5         1         1         3         3         3      0.00023267
         5         1         1         3         4         1      0.00038631
         5         1         1         3         4         2      0.00014128
         5         1         1         3         4         3     -0.00077605
         5         1         3         1         1         1     -0.00002807
         5         1         3         1         1         2     -0.00006737
         5         1         3         1         1         3     -0.00006040
         5         1         3         1         1         4     -0.00002414
         5         1         3         1         2         1     -0.00011523
         5         1         3         1         2         2     -0.00023444
         5         1         3         1         2         3     -0.00022800
         5         1         3         1         2         4     -0.00006438
         5         1         3         1         3         1      0.00010427
         5         1         3         1         3         2      0.00007616
         5         1         3         1         3         3     -0.00013128
         5         1         3         1         3         4      0.00024405
         5         2         1         3         1         1      0.01021409
         5         2         1         3         1         2      0.00576092
         5         2         1         3         1         3     -0.00977033
         5         2         1         3         2         1      0.00594201
         5         2         1         3         2         2      0.01238638
         5         2         1         3         2         3     -0.00713816
         5         2         1         3         3         1     -0.00309164
         5         2         1         3         3         2     -0.00526186
         5         2         1         3         3         3      0.00525859
         5         2         1         3         4         1      0.00572911
         5         2         1         3         4         2     -0.00003936
         5         2         1         3         4         3     -0.00709680
         5         2         3         1         1         1      0.01732602
         5         2         3         1         1         2      0.01105592
         5         2         3         1         1         3     -0.00565745
         5         2         3         1         1         4      0.01164791
         5         2         3         1         2         1      0.00245729
         5         2         3         1         2         2      0.01028491
         5         2         3         1         2         3     -0.00525977
         5         2         3         1         2         4      0.00137597
         5         2         3         1         3         1     -0.01543822
         5         2         3         1         3         2     -0.01153293
         5         2         3         1         3         3      0.00774275
         5         2         3         1         3         4     -0.01430245
         5         3         1         3         1         1      0.01418115
         5         3         1         3         1         2      0.01038650
         5         3         1         3         1         3     -0.00350930
         5         3         1         3         2         1      0.01383065
         5         3         1         3         2         2      0.01702953
         5         3         1         3         2         3     -0.00791760
         5         3         1         3         3         1      0.00076995
         5         3         1         3         3         2     -0.00556295
         5         3         1         3         3         3     -0.00371894
         5         3         1         3         4         1     -0.00218087
         5         3         1         3         4         2     -0.00214367
         5         3         1         3         4         3      0.00322876
         5         3         3         1         1         1      0.02197817
         5         3         3         1         1         2      0.01941981
         5         3         3         1         1         3      0.01613106
         5         3         3         1         1         4     -0.00181638
         5         3         3         1         2         1      0.01009108
         5         3         3         1         2         2      0.01446034
         5         3         3         1         2         3     -0.00082830
         5         3         3         1         2         4      0.00033695
         5         3         3         1         3         1     -0.01059100
         5         3         3         1         3         2     -0.01755321
         5         3         3         1         3         3     -0.01735604
         5         3         3         1         3         4      0.00417264
         5         4         2         3         1         1      0.00650360
         5         4         2         3         1         2      0.00119314
         5         4         2         3         1         3     -0.00757176
         5         4         3         2         1         1      0.02490191
         5         4         3         2         2         1      0.00366051
         5         4         3         2         3         1     -0.02639891


 RESULTS
 =======

  Reference energy                    -75.983902444804

  Correlated core orbitals:             1.1
  Orbital energies:                   -20.5610

  CCSD core-core energy                -0.000293883973
  CCSD core-valence energy             -0.000691642967
  CCSD valence correlation energy      -0.134610115490

  CCSD singlet pair energy             -0.099329628498
  CCSD triplet pair energy             -0.036266013132
  CCSD correlation energy              -0.135595642429

 !CCSD total energy                   -76.119498087233

 Timing summary (sec):

 STEP                 CPU(USER)    SYS     CPU(TOT)    WALL
 CCSD iterations         0.08      0.00      0.08      0.08

 Program statistics:

 Available memory in ccsd:                39999100
 Min. memory needed in ccsd:                  2470
 Max. memory used in ccsd:                    2517
 Max. memory used in cckext:                 35598 (19 integral passes)



 **********************************************************************************************************************************
 DATASETS  * FILE   NREC   LENGTH (MB)   RECORD NAMES
              1      20       29.99       500      700      610      900      950      970     1000      129      960     1100   
                                          VAR     GEOM    BASINP   SYMINP    ZMAT    AOBASIS   BASIS     P2S    ABASIS      S 
                                         1400     1410     1200     1210     1080     1600     1650     1300     1700     1380   
                                           T        V       H0       H01     AOSYM     SMH    MOLCAS    ERIS     OPER     JKOP   

              3       5       14.78       500      610      700     1000     2100   
                                          VAR    BASINP    GEOM     BASIS     RHF  

 PROGRAMS   *        TOTAL      CCSD       INT   RESTART
 CPU TIMES  *         0.42      0.15      0.15      0.02
 REAL TIME  *         1.64 SEC
 DISK USED  *        49.46 MB
 **********************************************************************************************************************************
 Molecular orbitals read from record     2100.3  Type=RHF/CANONICAL (state 1.1)
 Occupation numbers read from record     2100.3  Type=RHF/RHF (state 1.1)
 Orbital energies read from record       2100.3  Type=RHF/CANONICAL (state 1.1)
 Redundancy group numbers read from rec  2100.3  Type=RHF/RHF (state 1.1)

 CCSD/6-31G energy=    -76.119498087233

            CCSD
    -76.11949809
 **********************************************************************************************************************************
 Molpro calculation terminated
