
 Primary working directories    : /scr/yuriaoto/job.023371/molpro.Hv6kUgVhxo
 Secondary working directories  : /scr/yuriaoto/job.023371/molpro.Hv6kUgVhxo
 Wavefunction directory         : /scr/yuriaoto/job.023371/
 Main file repository           : /scr/yuriaoto/job.023371/molpro.Hv6kUgVhxo/

 id        : yuriaoto

 Nodes             nprocs
 t-rex.ufabc.int.br    1

 Using customized tuning parameters: mindgm=8; mindgv=16; mindgc=1; mindgr=1; noblas=0; minvec=7
 default implementation of scratch files=df  


 Variables initialized (933), CPU time= 0.00 sec
 ***,
 memory,40,m
 gprint,orbital,basis,civector
 gthresh,thrprint=0,printci=0.0
 file,3,wfu.dat,old
 
 {ccsd,CC_NORM_MAX=10.0
 thresh,printci=0.0,ENERGY=1.0E-10,COEFF=1.0E-12
 print,ref=1
 wf,10,1,0;
 }
 
 Commands  initialized (760), CPU time= 0.01 sec, 617 directives.
 Default parameters read. Elapsed time= 0.05 sec

 Checking input...
 Passed
1


                                         ***  PROGRAM SYSTEM MOLPRO  ***
                                       Copyright, TTI GmbH Stuttgart, 2015
                                    Version 2019.2 linked Abr  7 2019 15:10:35


 **********************************************************************************************************************************
 LABEL *                                                                                 
  64 bit serial version                                                                  DATE: 02-Jun-20          TIME: 00:09:44  
 **********************************************************************************************************************************

 SHA1:             3a8a58c585c929645742fb5a1b7541a4ad1da699
 **********************************************************************************************************************************


 THRESHOLDS:

 ZERO    =  1.00D-12  ONEINT  =  1.00D-12  TWOINT  =  1.00D-11  PREFAC  =  1.00D-14  XXXXXX  =  1.00D-09  EORDER  =  1.00D-04
 ENERGY  =  0.00D+00  ETEST   =  0.00D+00  EDENS   =  0.00D+00  THRDEDEF=  1.00D-06  GRADIENT=  1.00D-02  STEP    =  1.00D-03
 ORBITAL =  1.00D-05  CIVEC   =  1.00D-05  COEFF   =  1.00D-04  PRINTCI =  0.00D+00  PUNCHCI =  9.90D+01  OPTGRAD =  3.00D-04
 OPTENERG=  1.00D-06  OPTSTEP =  3.00D-04  THRGRAD =  1.00D-10  COMPRESS=  1.00D-11  VARMIN  =  1.00D-07  VARMAX  =  1.00D-03
 THRDOUB =  0.00D+00  THRDIV  =  1.00D-05  THRRED  =  1.00D-07  THRPSP  =  1.00D+00  THRDC   =  1.00D-10  THRCS   =  1.00D-10
 THRNRM  =  1.00D-08  THREQ   =  0.00D+00  THRDE   =  1.00D+00  THRREF  =  1.00D-05  SPARFAC =  1.00D+00  THRDLP  =  1.00D-07
 THRDIA  =  1.00D-10  THRDLS  =  1.00D-07  THRGPS  =  0.00D+00  THRKEX  =  0.00D+00  THRDIS  =  2.00D-01  THRVAR  =  1.00D-10
 THRLOC  =  1.00D-06  THRGAP  =  1.00D-06  THRLOCT = -1.00D+00  THRGAPT = -1.00D+00  THRORB  =  1.00D-06  THRMLTP =  0.00D+00
 THRCPQCI=  1.00D-10  KEXTA   =  0.00D+00  THRCOARS=  0.00D+00  SYMTOL  =  1.00D-06  GRADTOL =  1.00D-06  THROVL  =  1.00D-08
 THRORTH =  1.00D-08  GRID    =  1.00D-06  GRIDMAX =  1.00D-03  DTMAX   =  0.00D+00  THROCCDE=  1.00D-01  THROCCDE=  1.00D-01
 THRPRINT=  0.00D+00


 Variable memory set to   40000000 words,  buffer space 



 Permanent file  3  wfu.dat  assigned.  Implementation=df    Size= 14.09 MB


 PROGRAM * RESTART 


 Reading variables from file 3

 _FNUC           =      0.00000000
 _BASIS          =    6-31G
 _NELEC          =     10.00000000
 _PROGRAM        =    HF-SCF
 _DMZ            =      1.03598798
 _DMX_SCF        =      0.00000000
 _DMY_SCF        =      0.00000000
 _DMZ_SCF        =      1.03598798
 _HOMO           =      1.20000000
 _EHOMO          =     -0.50128600
 _LUMO           =      4.10000000
 _ELUMO          =      0.20310195
 _ENERGY         =    -75.98390244
 _ENERGY_METHOD  =    HF
 _ENERGY_BASIS   =    6-31G
 _ENUC           =      9.16842912
 _EPS1(1:3)      =    -20.56102543    -1.35503251    -0.56043835
 _EPS2           =     -0.50128600
 _EPS3           =     -0.70845397
 _IPROC_MPP      =      0.00000000
 _IPROC_MPPX     =      0.00000000
 _ORBITAL        =   2100.30000000
 _STATUS         =      1.00000000
 _DATE           =    21-Oct-19
 _LASTORB        =    RHF
 _OUTPUT         =    /scr/yuriaoto/job.022429/RHF.xml
 _PGROUP         =    C2v 
 _TIME           =    13:25:56
 R               =      0.96000000
 A               =    104.40000000

 Geometry written to block  1 of record 700


 **********************************************************************************************************************************
 DATASETS  * FILE   NREC   LENGTH (MB)   RECORD NAMES
              3       5       14.78       500      610      700     1000     2100   
                                          VAR    BASINP    GEOM     BASIS     RHF  

 PROGRAMS   *        TOTAL   RESTART
 CPU TIMES  *         0.12      0.02
 REAL TIME  *         0.15 SEC
 DISK USED  *        26.85 MB
 **********************************************************************************************************************************


 Recomputing integrals since basis changed


 Using spherical harmonics

 Library entry H      S 6-31G                selected for orbital group  1
 Library entry O      S 6-31G                selected for orbital group  2
 Library entry O      P 6-31G                selected for orbital group  2


 PROGRAM * SEWARD (Integral evaluation for generally contracted gaussian basis sets)     Author: Roland Lindh, 1990

 Geometry written to block  1 of record 700

 Orientation using atomic masses  
 Molecule type: Asymmetric top,     Order of principal axis = 2
 Symmetry elements: X,Y
 Rotational constants:     283.9621697    815.3763831    435.6978814 GHz  (calculated with average atomic masses)

 Point group  C2v 



 ATOMIC COORDINATES

 NR  ATOM    CHARGE       X              Y              Z

   1  H1      1.00    0.000000000   -1.433449507    0.987477933
   2  H2      1.00    0.000000000    1.433449507    0.987477933
   3  O       8.00    0.000000000    0.000000000   -0.124419479

 Bond lengths in Bohr (Angstrom)

 1-3  1.814137080  2-3  1.814137080
     ( 0.960000000)     ( 0.960000000)

 Bond angles

  1-3-2  104.40000000


 BASIS DATA

   Nr Sym  Nuc  Type         Exponents   Contraction coefficients

    1.1 A1    1  1s          18.731137     0.033495
              2  1s           2.825394     0.234727
                              0.640122     0.813757
    2.1 A1    1  1s           0.161278     1.000000
              2  1s    
    3.1 A1    3  1s        5484.671700     0.001831
                            825.234950     0.013950
                            188.046960     0.068445
                             52.964500     0.232714
                             16.897570     0.470193
                              5.799635     0.358521
    4.1 A1    3  1s          15.539616    -0.110778
                              3.599934    -0.148026
                              1.013762     1.130767
    5.1 A1    3  1s           0.270006     1.000000
    6.1 A1    3  2pz         15.539616     0.070874
                              3.599934     0.339753
                              1.013762     0.727159
    7.1 A1    3  2pz          0.270006     1.000000
    1.2 B1    3  2px         15.539616     0.070874
                              3.599934     0.339753
                              1.013762     0.727159
    2.2 B1    3  2px          0.270006     1.000000
    1.3 B2    1  1s          18.731137     0.033495
              2 -1s           2.825394     0.234727
                              0.640122     0.813757
    2.3 B2    1  1s           0.161278     1.000000
              2 -1s    
    3.3 B2    3  2py         15.539616     0.070874
                              3.599934     0.339753
                              1.013762     0.727159
    4.3 B2    3  2py          0.270006     1.000000

 NUCLEAR CHARGE:                   10
 NUMBER OF PRIMITIVE AOS:          30
 NUMBER OF SYMMETRY AOS:           30
 NUMBER OF CONTRACTIONS:           13   (    7A1  +    2B1  +    4B2  +    0A2  )
 NUMBER OF CORE ORBITALS:           1   (    1A1  +    0B1  +    0B2  +    0A2  )
 NUMBER OF VALENCE ORBITALS:        6   (    3A1  +    1B1  +    2B2  +    0A2  )


 NUCLEAR REPULSION ENERGY    9.16842912

 Eigenvalues of metric

         1 0.681E-01 0.322E+00 0.424E+00 0.681E+00 0.101E+01 0.163E+01 0.344E+01
         2 0.498E+00 0.150E+01
         3 0.120E+00 0.328E+00 0.742E+00 0.224E+01


 Contracted 2-electron integrals neglected if value below      1.0D-11
 AO integral compression algorithm  1   Integral accuracy      1.0D-11

     0.262 MB (compressed) written to integral file (100.0%)


 NUMBER OF SORTED TWO-ELECTRON INTEGRALS:       1649.     BUFFER LENGTH:  32768
 NUMBER OF SEGMENTS:   1  SEGMENT LENGTH:       1649      RECORD LENGTH: 524288

 Memory used in sort:       0.56 MW

 SORT1 READ        2701. AND WROTE        1487. INTEGRALS IN      1 RECORDS. CPU TIME:     0.00 SEC, REAL TIME:     0.00 SEC
 SORT2 READ        1487. AND WROTE        1649. INTEGRALS IN      1 RECORDS. CPU TIME:     0.00 SEC, REAL TIME:     0.00 SEC

 FILE SIZES:   FILE 1:    30.2 MBYTE,  FILE 4:     4.2 MBYTE,   TOTAL:     34.4 MBYTE

 OPERATOR DM      FOR CENTER  0  COORDINATES:    0.000000    0.000000    0.000000


 **********************************************************************************************************************************
 DATASETS  * FILE   NREC   LENGTH (MB)   RECORD NAMES
              1      19       29.97       500      700      610      900      950      970     1000      129      960     1100   
                                          VAR     GEOM    BASINP   SYMINP    ZMAT    AOBASIS   BASIS     P2S    ABASIS      S 
                                         1400     1410     1200     1210     1080     1600     1650     1300     1700   
                                           T        V       H0       H01     AOSYM     SMH    MOLCAS    ERIS     OPER   

              3       5       14.78       500      610      700     1000     2100   
                                          VAR    BASINP    GEOM     BASIS     RHF  

 PROGRAMS   *        TOTAL       INT   RESTART
 CPU TIMES  *         0.27      0.15      0.02
 REAL TIME  *         0.44 SEC
 DISK USED  *        49.46 MB
 **********************************************************************************************************************************


 PROGRAM * CCSD (Closed-shell coupled cluster)     Authors: C. Hampel, H.-J. Werner, 1991, M. Deegan, P.J. Knowles, 1992


 Input parameters for THRESH:

 ENERGY   =    1.00D-10
 COEFF    =    1.00D-12
 PRINTCI  =    0.000000
 THRPRINT =    0.000000

 Convergence thresholds:  THRVAR = 1.00D-24  THRDEN = 1.00D-10

 Number of core orbitals:           1 (   1   0   0 )
 Number of closed-shell orbitals:   4 (   2   1   1 )
 Number of external orbitals:       8 (   4   1   3 )

 Molecular orbitals read from record     2100.3  Type=RHF/CANONICAL (state 1.1)

 Number of N-1 electron functions:               4
 Number of N-2 electron functions:              10
 Number of singly external CSFs:                12
 Number of doubly external CSFs:               164
 Total number of CSFs:                         177

 Length of J-op  integral file:               0.00 MB
 Length of K-op  integral file:               0.04 MB
 Length of 3-ext integral record:             0.00 MB

 Integral transformation finished. Total CPU:   0.00 sec, npass=  1  Memory used:   0.07 MW

 Reference energy:                    -75.98390244

 MP2 singlet pair energy:              -0.08318602
 MP2 triplet pair energy:              -0.04483730
 MP2 correlation energy:               -0.12802332
 MP2 total energy:                    -76.11192576

 SCS-MP2 correlation energy:           -0.12772199   (PS=  1.200000  PT=  0.333333)
 SCS-MP2 total energy:                -76.11162443

 ITER.      SQ.NORM     CORR.ENERGY   TOTAL ENERGY   ENERGY CHANGE        DEN1      VAR(S)    VAR(P)  DIIS     TIME  TIME/IT
   1      1.04021753    -0.13334584   -76.11724828    -0.00532252    -0.00224406  0.33D-03  0.67D-03  1  1     0.02     0.00
   2      1.04395050    -0.13458434   -76.11848679    -0.00123851    -0.00381469  0.92D-05  0.54D-04  2  2     0.02     0.00
   3      1.04464723    -0.13469330   -76.11859575    -0.00010896    -0.00051476  0.21D-05  0.24D-05  3  3     0.02     0.00
   4      1.04479760    -0.13469005   -76.11859249     0.00000325    -0.00007723  0.14D-06  0.13D-06  4  4     0.03     0.00
   5      1.04483383    -0.13468808   -76.11859053     0.00000197    -0.00001381  0.31D-07  0.80D-08  5  5     0.03     0.00
   6      1.04483878    -0.13468801   -76.11859046     0.00000007     0.00000027  0.25D-08  0.63D-09  6  6     0.03     0.00
   7      1.04484119    -0.13468786   -76.11859031     0.00000015    -0.00000011  0.69D-10  0.38D-10  6  1     0.03     0.00
   8      1.04484165    -0.13468785   -76.11859029     0.00000001    -0.00000006  0.17D-11  0.42D-11  6  2     0.03     0.00
   9      1.04484178    -0.13468784   -76.11859028     0.00000001    -0.00000005  0.79D-13  0.14D-12  6  4     0.04     0.00
  10      1.04484180    -0.13468784   -76.11859028     0.00000000    -0.00000001  0.16D-14  0.59D-14  6  3     0.04     0.00
  11      1.04484180    -0.13468784   -76.11859028    -0.00000000     0.00000000  0.11D-15  0.25D-15  6  5     0.04     0.00
  12      1.04484180    -0.13468784   -76.11859028     0.00000000     0.00000000  0.44D-17  0.89D-17  6  1     0.04     0.00
  13      1.04484180    -0.13468784   -76.11859028    -0.00000000     0.00000000  0.67D-19  0.13D-18  6  6     0.05     0.00
  14      1.04484180    -0.13468784   -76.11859028    -0.00000000     0.00000000  0.10D-19  0.14D-19  6  2     0.05     0.00
  15      1.04484180    -0.13468784   -76.11859028    -0.00000000     0.00000000  0.25D-21  0.40D-21  6  4     0.05     0.00
  16      1.04484180    -0.13468784   -76.11859028     0.00000000     0.00000000  0.91D-23  0.23D-22  6  3     0.05     0.00
  17      1.04484180    -0.13468784   -76.11859028     0.00000000    -0.00000000  0.58D-24  0.13D-23  6  5     0.06     0.00
  18      1.04484180    -0.13468784   -76.11859028     0.00000000     0.00000000  0.84D-26  0.65D-25  6  1     0.06     0.00

 Norm of t1 vector:      0.02698236      S-energy:    -0.00000000      T1 diagnostic:  0.00674559
                                                                       D1 diagnostic:  0.01286288

 Singles amplitudes (print threshold =  0.000E+00):

         I         SYM. A    A   T(IA)

         1         1         1      0.00369891
         1         1         2     -0.00166709
         1         1         3     -0.00456027
         1         1         4     -0.00118020
         2         1         1      0.01082307
         2         1         2      0.00043509
         2         1         3     -0.00031951
         2         1         4     -0.00551365
         3         2         1      0.00597387
         4         3         1     -0.00770791
         4         3         2     -0.00282763
         4         3         3     -0.00862838

 Doubles amplitudes (print threshold =  0.000E+00):

         I         J         SYM. A    SYM. B    A         B      T(IJ, AB)

         1         1         1         1         1         1     -0.01624819
         1         1         1         1         1         2     -0.01245826
         1         1         1         1         1         3      0.00106701
         1         1         1         1         1         4     -0.01016499
         1         1         1         1         2         1     -0.01245826
         1         1         1         1         2         2     -0.01522714
         1         1         1         1         2         3      0.00069924
         1         1         1         1         2         4     -0.00666450
         1         1         1         1         3         1      0.00106701
         1         1         1         1         3         2      0.00069924
         1         1         1         1         3         3     -0.00617530
         1         1         1         1         3         4      0.00173009
         1         1         1         1         4         1     -0.01016499
         1         1         1         1         4         2     -0.00666450
         1         1         1         1         4         3      0.00173009
         1         1         1         1         4         4     -0.01264674
         1         1         2         2         1         1     -0.00884153
         1         1         3         3         1         1     -0.00795490
         1         1         3         3         1         2     -0.00333754
         1         1         3         3         1         3      0.00716091
         1         1         3         3         2         1     -0.00333754
         1         1         3         3         2         2     -0.00731443
         1         1         3         3         2         3      0.00314136
         1         1         3         3         3         1      0.00716091
         1         1         3         3         3         2      0.00314136
         1         1         3         3         3         3     -0.00916864
         2         1         1         1         1         1     -0.01563484
         2         1         1         1         1         2     -0.01208301
         2         1         1         1         1         3     -0.00076934
         2         1         1         1         1         4     -0.00644729
         2         1         1         1         2         1     -0.01423147
         2         1         1         1         2         2     -0.01353252
         2         1         1         1         2         3      0.00643173
         2         1         1         1         2         4     -0.00986363
         2         1         1         1         3         1     -0.00895785
         2         1         1         1         3         2      0.00036441
         2         1         1         1         3         3      0.00837680
         2         1         1         1         3         4     -0.01372282
         2         1         1         1         4         1     -0.00187206
         2         1         1         1         4         2     -0.00408809
         2         1         1         1         4         3     -0.00681930
         2         1         1         1         4         4     -0.00019648
         2         1         2         2         1         1      0.00308822
         2         1         3         3         1         1      0.00234449
         2         1         3         3         1         2     -0.00091028
         2         1         3         3         1         3     -0.00045567
         2         1         3         3         2         1      0.00288134
         2         1         3         3         2         2     -0.00510181
         2         1         3         3         2         3      0.00120087
         2         1         3         3         3         1     -0.00160384
         2         1         3         3         3         2      0.00205844
         2         1         3         3         3         3      0.00238542
         2         2         1         1         1         1     -0.02172985
         2         2         1         1         1         2     -0.01522120
         2         2         1         1         1         3     -0.00770922
         2         2         1         1         1         4     -0.00217159
         2         2         1         1         2         1     -0.01522120
         2         2         1         1         2         2     -0.02259963
         2         2         1         1         2         3     -0.01816761
         2         2         1         1         2         4      0.00320195
         2         2         1         1         3         1     -0.00770922
         2         2         1         1         3         2     -0.01816761
         2         2         1         1         3         3     -0.03404257
         2         2         1         1         3         4      0.00769320
         2         2         1         1         4         1     -0.00217159
         2         2         1         1         4         2      0.00320195
         2         2         1         1         4         3      0.00769320
         2         2         1         1         4         4     -0.00666693
         2         2         2         2         1         1     -0.00597158
         2         2         3         3         1         1     -0.01760002
         2         2         3         3         1         2     -0.01362546
         2         2         3         3         1         3      0.00582536
         2         2         3         3         2         1     -0.01362546
         2         2         3         3         2         2     -0.01661591
         2         2         3         3         2         3      0.00414635
         2         2         3         3         3         1      0.00582536
         2         2         3         3         3         2      0.00414635
         2         2         3         3         3         3     -0.00526818
         3         3         1         1         1         1     -0.01275334
         3         3         1         1         1         2     -0.00677229
         3         3         1         1         1         3      0.00343504
         3         3         1         1         1         4     -0.00607696
         3         3         1         1         2         1     -0.00677229
         3         3         1         1         2         2     -0.00679248
         3         3         1         1         2         3      0.00097647
         3         3         1         1         2         4      0.00021930
         3         3         1         1         3         1      0.00343504
         3         3         1         1         3         2      0.00097647
         3         3         1         1         3         3     -0.00701758
         3         3         1         1         3         4      0.00234382
         3         3         1         1         4         1     -0.00607696
         3         3         1         1         4         2      0.00021930
         3         3         1         1         4         3      0.00234382
         3         3         1         1         4         4     -0.01280051
         3         3         2         2         1         1     -0.05340554
         3         3         3         3         1         1     -0.00490365
         3         3         3         3         1         2     -0.00183402
         3         3         3         3         1         3      0.00359364
         3         3         3         3         2         1     -0.00183402
         3         3         3         3         2         2     -0.00131155
         3         3         3         3         2         3     -0.00003069
         3         3         3         3         3         1      0.00359364
         3         3         3         3         3         2     -0.00003069
         3         3         3         3         3         3     -0.00478378
         4         4         1         1         1         1     -0.02045976
         4         4         1         1         1         2     -0.01455159
         4         4         1         1         1         3      0.00580556
         4         4         1         1         1         4     -0.00342455
         4         4         1         1         2         1     -0.01455159
         4         4         1         1         2         2     -0.02317729
         4         4         1         1         2         3      0.00891118
         4         4         1         1         2         4      0.00060023
         4         4         1         1         3         1      0.00580556
         4         4         1         1         3         2      0.00891118
         4         4         1         1         3         3     -0.00682350
         4         4         1         1         3         4      0.00115830
         4         4         1         1         4         1     -0.00342455
         4         4         1         1         4         2      0.00060023
         4         4         1         1         4         3      0.00115830
         4         4         1         1         4         4     -0.00526436
         4         4         2         2         1         1     -0.00327212
         4         4         3         3         1         1     -0.04229718
         4         4         3         3         1         2     -0.01782318
         4         4         3         3         1         3      0.02596286
         4         4         3         3         2         1     -0.01782318
         4         4         3         3         2         2     -0.02760299
         4         4         3         3         2         3      0.01042335
         4         4         3         3         3         1      0.02596286
         4         4         3         3         3         2      0.01042335
         4         4         3         3         3         3     -0.02760957
         3         1         1         2         1         1     -0.00963888
         3         1         1         2         2         1     -0.00510930
         3         1         1         2         3         1      0.00528083
         3         1         1         2         4         1     -0.01028680
         3         1         2         1         1         1     -0.01944301
         3         1         2         1         1         2     -0.01049676
         3         1         2         1         1         3      0.00779637
         3         1         2         1         1         4     -0.02045823
         3         2         1         2         1         1     -0.00065316
         3         2         1         2         2         1     -0.00417323
         3         2         1         2         3         1     -0.00947626
         3         2         1         2         4         1      0.00276023
         3         2         2         1         1         1     -0.01205009
         3         2         2         1         1         2     -0.01986741
         3         2         2         1         1         3     -0.02794179
         3         2         2         1         1         4      0.00497932
         4         1         1         3         1         1      0.01022543
         4         1         1         3         1         2      0.00576370
         4         1         1         3         1         3     -0.00978223
         4         1         1         3         2         1      0.00594298
         4         1         1         3         2         2      0.01238501
         4         1         1         3         2         3     -0.00713916
         4         1         1         3         3         1     -0.00309989
         4         1         1         3         3         2     -0.00526557
         4         1         1         3         3         3      0.00526730
         4         1         1         3         4         1      0.00574842
         4         1         1         3         4         2     -0.00003385
         4         1         1         3         4         3     -0.00711814
         4         1         3         1         1         1      0.01732473
         4         1         3         1         1         2      0.01105475
         4         1         3         1         1         3     -0.00566099
         4         1         3         1         1         4      0.01165161
         4         1         3         1         2         1      0.00245135
         4         1         3         1         2         2      0.01027721
         4         1         3         1         2         3     -0.00526610
         4         1         3         1         2         4      0.00137629
         4         1         3         1         3         1     -0.01544024
         4         1         3         1         3         2     -0.01153473
         4         1         3         1         3         3      0.00774408
         4         1         3         1         3         4     -0.01430878
         4         2         1         3         1         1      0.01417410
         4         2         1         3         1         2      0.01038370
         4         2         1         3         1         3     -0.00350026
         4         2         1         3         2         1      0.01382800
         4         2         1         3         2         2      0.01703095
         4         2         1         3         2         3     -0.00791046
         4         2         1         3         3         1      0.00076798
         4         2         1         3         3         2     -0.00556190
         4         2         1         3         3         3     -0.00371361
         4         2         1         3         4         1     -0.00219269
         4         2         1         3         4         2     -0.00215226
         4         2         1         3         4         3      0.00323983
         4         2         3         1         1         1      0.02198575
         4         2         3         1         1         2      0.01942692
         4         2         3         1         1         3      0.01613729
         4         2         3         1         1         4     -0.00181843
         4         2         3         1         2         1      0.01009449
         4         2         3         1         2         2      0.01446655
         4         2         3         1         2         3     -0.00082058
         4         2         3         1         2         4      0.00033275
         4         2         3         1         3         1     -0.01059666
         4         2         3         1         3         2     -0.01756398
         4         2         3         1         3         3     -0.01736589
         4         2         3         1         3         4      0.00417362
         4         3         2         3         1         1      0.00649376
         4         3         2         3         1         2      0.00118930
         4         3         2         3         1         3     -0.00755795
         4         3         3         2         1         1      0.02490759
         4         3         3         2         2         1      0.00366290
         4         3         3         2         3         1     -0.02641351


 RESULTS
 =======

  Reference energy                    -75.983902444804
  CCSD singlet pair energy             -0.098828946231
  CCSD triplet pair energy             -0.035858890956
  CCSD correlation energy              -0.134687838199

 !CCSD total energy                   -76.118590283003

 Timing summary (sec):

 STEP                 CPU(USER)    SYS     CPU(TOT)    WALL
 CCSD iterations         0.06      0.02      0.08      0.07

 Program statistics:

 Available memory in ccsd:                39999136
 Min. memory needed in ccsd:                  1826
 Max. memory used in ccsd:                    1826
 Max. memory used in cckext:                 34846 (18 integral passes)



 **********************************************************************************************************************************
 DATASETS  * FILE   NREC   LENGTH (MB)   RECORD NAMES
              1      20       29.98       500      700      610      900      950      970     1000      129      960     1100   
                                          VAR     GEOM    BASINP   SYMINP    ZMAT    AOBASIS   BASIS     P2S    ABASIS      S 
                                         1400     1410     1200     1210     1080     1600     1650     1300     1700     1380   
                                           T        V       H0       H01     AOSYM     SMH    MOLCAS    ERIS     OPER     JKOP   

              3       5       14.78       500      610      700     1000     2100   
                                          VAR    BASINP    GEOM     BASIS     RHF  

 PROGRAMS   *        TOTAL      CCSD       INT   RESTART
 CPU TIMES  *         0.40      0.13      0.15      0.02
 REAL TIME  *         0.60 SEC
 DISK USED  *        49.46 MB
 **********************************************************************************************************************************
 Molecular orbitals read from record     2100.3  Type=RHF/CANONICAL (state 1.1)
 Occupation numbers read from record     2100.3  Type=RHF/RHF (state 1.1)
 Orbital energies read from record       2100.3  Type=RHF/CANONICAL (state 1.1)
 Redundancy group numbers read from rec  2100.3  Type=RHF/RHF (state 1.1)

 CCSD/6-31G energy=    -76.118590283003

            CCSD
    -76.11859028
 **********************************************************************************************************************************
 Molpro calculation terminated
