
 Primary working directories    : /scr/yuriaoto/job.032872/molpro.2bxP221sbR
 Secondary working directories  : /scr/yuriaoto/job.032872/molpro.2bxP221sbR
 Wavefunction directory         : /scr/yuriaoto/job.032872/
 Main file repository           : /scr/yuriaoto/job.032872/molpro.2bxP221sbR/

 id        : yuriaoto

 Nodes             nprocs
 t-rex.ufabc.int.br    1

 Using customized tuning parameters: mindgm=8; mindgv=16; mindgc=1; mindgr=1; noblas=0; minvec=7
 default implementation of scratch files=df  


 Variables initialized (933), CPU time= 0.00 sec
 ***,
 memory,40,m
 gprint,orbital,basis,civector
 gthresh,thrprint=0,printci=0.0
 file,3,wfu.dat,old
 
 {ccsd,CC_NORM_MAX=10.0
 thresh,printci=0.0,ENERGY=1.0E-10,COEFF=1.0E-12
 print,ref=1
 wf,17,1,1;
 }
 
 Commands  initialized (760), CPU time= 0.01 sec, 617 directives.
 Default parameters read. Elapsed time= 0.04 sec

 Checking input...
 Passed
1


                                         ***  PROGRAM SYSTEM MOLPRO  ***
                                       Copyright, TTI GmbH Stuttgart, 2015
                                    Version 2019.2 linked Abr  7 2019 15:10:35


 **********************************************************************************************************************************
 LABEL *                                                                                 
  64 bit serial version                                                                  DATE: 15-Feb-21          TIME: 07:55:28  
 **********************************************************************************************************************************

 SHA1:             3a8a58c585c929645742fb5a1b7541a4ad1da699
 **********************************************************************************************************************************


 THRESHOLDS:

 ZERO    =  1.00D-12  ONEINT  =  1.00D-12  TWOINT  =  1.00D-11  PREFAC  =  1.00D-14  XXXXXX  =  1.00D-09  EORDER  =  1.00D-04
 ENERGY  =  0.00D+00  ETEST   =  0.00D+00  EDENS   =  0.00D+00  THRDEDEF=  1.00D-06  GRADIENT=  1.00D-02  STEP    =  1.00D-03
 ORBITAL =  1.00D-05  CIVEC   =  1.00D-05  COEFF   =  1.00D-04  PRINTCI =  0.00D+00  PUNCHCI =  9.90D+01  OPTGRAD =  3.00D-04
 OPTENERG=  1.00D-06  OPTSTEP =  3.00D-04  THRGRAD =  1.00D-10  COMPRESS=  1.00D-11  VARMIN  =  1.00D-07  VARMAX  =  1.00D-03
 THRDOUB =  0.00D+00  THRDIV  =  1.00D-05  THRRED  =  1.00D-07  THRPSP  =  1.00D+00  THRDC   =  1.00D-10  THRCS   =  1.00D-10
 THRNRM  =  1.00D-08  THREQ   =  0.00D+00  THRDE   =  1.00D+00  THRREF  =  1.00D-05  SPARFAC =  1.00D+00  THRDLP  =  1.00D-07
 THRDIA  =  1.00D-10  THRDLS  =  1.00D-07  THRGPS  =  0.00D+00  THRKEX  =  0.00D+00  THRDIS  =  2.00D-01  THRVAR  =  1.00D-10
 THRLOC  =  1.00D-06  THRGAP  =  1.00D-06  THRLOCT = -1.00D+00  THRGAPT = -1.00D+00  THRORB  =  1.00D-06  THRMLTP =  0.00D+00
 THRCPQCI=  1.00D-10  KEXTA   =  0.00D+00  THRCOARS=  0.00D+00  SYMTOL  =  1.00D-06  GRADTOL =  1.00D-06  THROVL  =  1.00D-08
 THRORTH =  1.00D-08  GRID    =  1.00D-06  GRIDMAX =  1.00D-03  DTMAX   =  0.00D+00  THROCCDE=  1.00D-01  THROCCDE=  1.00D-01
 THRPRINT=  0.00D+00


 Variable memory set to   40000000 words,  buffer space 



 Permanent file  3  wfu.dat  assigned.  Implementation=df    Size= 14.09 MB


 PROGRAM * RESTART 


 Reading variables from file 3

 _FNUC           =      0.00000000
 _BASIS          =    6-31G
 _NELEC          =     17.00000000
 _PROGRAM        =    RHF-SCF
 _DMX            =      0.00000000
 _DMY            =     -0.61741230
 _DMX_SCF        =      0.00000000
 _DMY_SCF        =     -0.61741230
 _DMZ_SCF        =      0.00000000
 _HOMO           =      2.20000000
 _EHOMO          =     -0.89564472
 _LUMO           =      8.10000000
 _ELUMO          =      0.02529962
 _ENERGY         =   -459.15444806
 _ENERGY_METHOD  =    RHF
 _ENERGY_BASIS   =    6-31G
 _ENUC           =     11.33333333
 _EPS1(1:12)     =   -105.29740774   -11.06347596    -8.53738302    -8.52059365    -1.69960665    -1.08902178
                       -0.97985042     0.02529962     0.08974026     0.24268466     0.26146178     1.08172807
 _EPS2(1:3)      =     -8.51617611    -0.89564472     0.27831644
 _IPROC_MPP      =      0.00000000
 _IPROC_MPPX     =      0.00000000
 _ORBITAL        =   2100.30000000
 _STATUS         =      1.00000000
 _LASTORB        =    RHF
 _OUTPUT         =    /scr/yuriaoto/job.032871/RHF.xml
 _PGROUP         =    Cs  
 _TIME           =    07:55:16
 R               =      1.50000000

 Geometry written to block  1 of record 700


 **********************************************************************************************************************************
 DATASETS  * FILE   NREC   LENGTH (MB)   RECORD NAMES
              3       5       14.77       500      610      700     1000     2100   
                                          VAR    BASINP    GEOM     BASIS     RHF  

 PROGRAMS   *        TOTAL   RESTART
 CPU TIMES  *         0.11      0.01
 REAL TIME  *         0.14 SEC
 DISK USED  *        26.84 MB
 **********************************************************************************************************************************


 Recomputing integrals since basis changed


 Using spherical harmonics

 Library entry H      S 6-31G                selected for orbital group  1
 Library entry CL     S 6-31G                selected for orbital group  2
 Library entry CL     P 6-31G                selected for orbital group  2


 PROGRAM * SEWARD (Integral evaluation for generally contracted gaussian basis sets)     Author: Roland Lindh, 1990

 Geometry written to block  1 of record 700

 Orientation using atomic masses  
 Molecule type: Linear
 User-specified symmetry elements: Z
 Symmetry elements: Z
 Rotational constants:     818.4131427      0.0000000    818.4131427 GHz  (calculated with average atomic masses)

 Point group  Cs  



 ATOMIC COORDINATES

 NR  ATOM    CHARGE       X              Y              Z

   1  H       1.00    0.000000000   -1.458533433    0.000000000
   2  CL     17.00    0.000000000    0.041466567    0.000000000

 Bond lengths in Bohr (Angstrom)

 1-2  1.500000000
     ( 0.793765816)


 BASIS DATA

   Nr Sym  Nuc  Type         Exponents   Contraction coefficients

    1.1 A'    1  1s          18.731137     0.033495
                              2.825394     0.234727
                              0.640122     0.813757
    2.1 A'    1  1s           0.161278     1.000000
    3.1 A'    2  1s       25180.100000     0.001833
                           3780.350000     0.014034
                            860.474000     0.069097
                            242.145000     0.237452
                             77.334900     0.483034
                             26.247000     0.339856
    4.1 A'    2  1s         491.765000    -0.002297
                            116.984000    -0.030714
                             37.415300    -0.112528
                             13.783400     0.045016
                              5.452150     0.589353
                              2.225880     0.465206
    5.1 A'    2  1s           3.186490    -0.251827
                              1.144270     0.061589
                              0.420377     1.060180
    6.1 A'    2  1s           0.142657     1.000000
    7.1 A'    2  2px        491.765000     0.003989
                            116.984000     0.030318
                             37.415300     0.129880
                             13.783400     0.327951
                              5.452150     0.453527
                              2.225880     0.252154
    8.1 A'    2  2py        491.765000     0.003989
                            116.984000     0.030318
                             37.415300     0.129880
                             13.783400     0.327951
                              5.452150     0.453527
                              2.225880     0.252154
    9.1 A'    2  2px          3.186490    -0.014299
                              1.144270     0.323572
                              0.420377     0.743507
   10.1 A'    2  2py          3.186490    -0.014299
                              1.144270     0.323572
                              0.420377     0.743507
   11.1 A'    2  2px          0.142657     1.000000
   12.1 A'    2  2py          0.142657     1.000000
    1.2 A"    2  2pz        491.765000     0.003989
                            116.984000     0.030318
                             37.415300     0.129880
                             13.783400     0.327951
                              5.452150     0.453527
                              2.225880     0.252154
    2.2 A"    2  2pz          3.186490    -0.014299
                              1.144270     0.323572
                              0.420377     0.743507
    3.2 A"    2  2pz          0.142657     1.000000

 NUCLEAR CHARGE:                   18
 NUMBER OF PRIMITIVE AOS:          50
 NUMBER OF SYMMETRY AOS:           50
 NUMBER OF CONTRACTIONS:           15   (   12A'  +    3A"  )
 NUMBER OF CORE ORBITALS:           5   (    4A'  +    1A"  )
 NUMBER OF VALENCE ORBITALS:        5   (    4A'  +    1A"  )


 NUCLEAR REPULSION ENERGY   11.33333333

 EXTRA SYMMETRY OF AOS IN SYMMETRY 1:   1 1 1 1 1 1 2 1 2 1   2 1

 Eigenvalues of metric

         1 0.130E-01 0.193E+00 0.223E+00 0.323E+00 0.485E+00 0.687E+00 0.942E+00 0.973E+00
         2 0.323E+00 0.942E+00 0.174E+01


 Contracted 2-electron integrals neglected if value below      1.0D-11
 AO integral compression algorithm  1   Integral accuracy      1.0D-11

     0.262 MB (compressed) written to integral file ( 94.0%)


 NUMBER OF SORTED TWO-ELECTRON INTEGRALS:       4506.     BUFFER LENGTH:  32768
 NUMBER OF SEGMENTS:   1  SEGMENT LENGTH:       4506      RECORD LENGTH: 524288

 Memory used in sort:       0.56 MW

 SORT1 READ        9025. AND WROTE        2055. INTEGRALS IN      1 RECORDS. CPU TIME:     0.00 SEC, REAL TIME:     0.00 SEC
 SORT2 READ        2055. AND WROTE        4506. INTEGRALS IN      1 RECORDS. CPU TIME:     0.01 SEC, REAL TIME:     0.01 SEC

 FILE SIZES:   FILE 1:    30.2 MBYTE,  FILE 4:     4.2 MBYTE,   TOTAL:     34.4 MBYTE

 OPERATOR DM      FOR CENTER  0  COORDINATES:    0.000000    0.000000    0.000000


 **********************************************************************************************************************************
 DATASETS  * FILE   NREC   LENGTH (MB)   RECORD NAMES
              1      19       29.97       500      700      610      900      950      970     1000      129      960     1100   
                                          VAR     GEOM    BASINP   SYMINP    ZMAT    AOBASIS   BASIS     P2S    ABASIS      S 
                                         1400     1410     1200     1210     1080     1600     1650     1300     1700   
                                           T        V       H0       H01     AOSYM     SMH    MOLCAS    ERIS     OPER   

              3       5       14.77       500      610      700     1000     2100   
                                          VAR    BASINP    GEOM     BASIS     RHF  

 PROGRAMS   *        TOTAL       INT   RESTART
 CPU TIMES  *         0.26      0.14      0.01
 REAL TIME  *         0.49 SEC
 DISK USED  *        49.44 MB
 **********************************************************************************************************************************


 PROGRAM * CCSD (Unrestricted open-shell coupled cluster)     Authors: C. Hampel, H.-J. Werner, 1991, M. Deegan, P.J. Knowles, 1992


 Input parameters for THRESH:

 ENERGY   =    1.00D-10
 COEFF    =    1.00D-12
 PRINTCI  =    0.000000
 THRPRINT =    0.000000

 Convergence thresholds:  THRVAR = 1.00D-24  THRDEN = 1.00D-10

 Number of core orbitals:           5 (   4   1 )
 Number of closed-shell orbitals:   3 (   2   1 )
 Number of active  orbitals:        1 (   1   0 )
 Number of external orbitals:       6 (   5   1 )

 Number of N-1 electron functions:               7
 Number of N-2 electron functions:              21
 Number of singly external CSFs:                32
 Number of doubly external CSFs:               409
 Total number of CSFs:                         441

 Molecular orbitals read from record     2100.3  Type=RHF/CANONICAL (state 1.1)

 Integral transformation finished. Total CPU:   0.00 sec, npass=  1  Memory used:   0.07 MW

 Starting RMP2 calculation, locsing= 0

 ITER.      SQ.NORM     CORR.ENERGY   TOTAL ENERGY   ENERGY CHANGE        DEN1      VAR(S)    VAR(P)  DIIS     TIME
   1      1.00835319    -0.02530463  -459.17975269    -0.02530463    -0.00009002  0.20D-05  0.30D-04  1  1     0.01
   2      1.00842663    -0.02540108  -459.17984914    -0.00009645    -0.00000005  0.35D-08  0.15D-07  2  2     0.01
   3      1.00842736    -0.02540155  -459.17984961    -0.00000047    -0.00000000  0.41D-11  0.41D-10  3  3     0.01
   4      1.00842737    -0.02540155  -459.17984961    -0.00000000    -0.00000000  0.66D-14  0.29D-13  4  4     0.01
   5      1.00842737    -0.02540155  -459.17984961     0.00000000    -0.00000000  0.27D-16  0.27D-16  5  5     0.01
   6      1.00842737    -0.02540155  -459.17984961     0.00000000    -0.00000000  0.21D-19  0.30D-19  6  6     0.01
   7      1.00842737    -0.02540155  -459.17984961     0.00000000    -0.00000000  0.65D-22  0.18D-21  6  1     0.01
   8      1.00842737    -0.02540155  -459.17984961     0.00000000    -0.00000000  0.48D-25  0.27D-24  6  2     0.01

 Norm of t1 vector:      0.01834099      S-energy:    -0.00061345      T1 diagnostic:  0.00013490
 Norm of t2 vector:      0.08994985      P-energy:    -0.02478809
                                         Alpha-Beta:  -0.02154762
                                         Alpha-Alpha: -0.00224160
                                         Beta-Beta:   -0.00099887

 Singles amplitudes (print threshold =  0.000E+00):

         I         SYM. A    A   T(IA) [Alpha-Alpha]

         1         1         1      0.00000000
         1         1         2     -0.00808766
         1         1         3     -0.00339647
         1         1         4      0.00000000
         1         1         5     -0.00088312
         1         1         6     -0.00603154
         2         1         1      0.00000000
         2         1         2     -0.00448578
         2         1         3     -0.00248627
         2         1         4     -0.00000000
         2         1         5     -0.00249994
         2         1         6     -0.00122769
         3         1         1      0.00000000
         3         1         2     -0.00000000
         3         1         3      0.00000000
         3         1         4     -0.00000005
         3         1         5     -0.00000000
         3         1         6     -0.00000000
         4         2         1     -0.00343249

         I         SYM. A    A   T(IA) [Beta-Beta]

         1         1         1     -0.00000000
         1         1         2      0.00850466
         1         1         3      0.00357622
         1         1         4      0.00000000
         1         1         5      0.00098108
         1         1         6      0.00614764
         2         1         1      0.00000000
         2         1         2      0.00494361
         2         1         3      0.00269087
         2         1         4      0.00000000
         2         1         5      0.00261712
         2         1         6      0.00132756
         3         1         1      0.00000000
         3         1         2      0.00000000
         3         1         3      0.00000000
         3         1         4      0.00000000
         3         1         5      0.00000000
         3         1         6      0.00000000
         4         2         1      0.00350389

 Doubles amplitudes (print threshold =  0.000E+00):

         I         J         SYM. A    SYM. B    A         B      T(IJ, AB) [Alpha-Alpha]

         2         1         1         1         1         1      0.00000000
         2         1         1         1         1         2      0.00000000
         2         1         1         1         1         3      0.00000000
         2         1         1         1         1         4      0.00000000
         2         1         1         1         1         5      0.00000000
         2         1         1         1         1         6      0.00000000
         2         1         1         1         2         1      0.00000000
         2         1         1         1         2         2      0.00000000
         2         1         1         1         2         3      0.00115375
         2         1         1         1         2         4      0.00000000
         2         1         1         1         2         5      0.00486203
         2         1         1         1         2         6      0.00011771
         2         1         1         1         3         1      0.00000000
         2         1         1         1         3         2     -0.00115375
         2         1         1         1         3         3      0.00000000
         2         1         1         1         3         4     -0.00000000
         2         1         1         1         3         5     -0.00420524
         2         1         1         1         3         6     -0.00151186
         2         1         1         1         4         1      0.00000000
         2         1         1         1         4         2     -0.00000000
         2         1         1         1         4         3      0.00000000
         2         1         1         1         4         4      0.00000000
         2         1         1         1         4         5      0.00000000
         2         1         1         1         4         6     -0.00000000
         2         1         1         1         5         1      0.00000000
         2         1         1         1         5         2     -0.00486203
         2         1         1         1         5         3      0.00420524
         2         1         1         1         5         4     -0.00000000
         2         1         1         1         5         5      0.00000000
         2         1         1         1         5         6     -0.00519153
         2         1         1         1         6         1      0.00000000
         2         1         1         1         6         2     -0.00011771
         2         1         1         1         6         3      0.00151186
         2         1         1         1         6         4      0.00000000
         2         1         1         1         6         5      0.00519153
         2         1         1         1         6         6      0.00000000
         2         1         2         2         1         1      0.00000000
         3         1         1         1         1         1      0.00000000
         3         1         1         1         1         2      0.00000000
         3         1         1         1         1         3      0.00000000
         3         1         1         1         1         4      0.00000000
         3         1         1         1         1         5      0.00000000
         3         1         1         1         1         6      0.00000000
         3         1         1         1         2         1      0.00000000
         3         1         1         1         2         2      0.00000000
         3         1         1         1         2         3      0.00000000
         3         1         1         1         2         4      0.00291486
         3         1         1         1         2         5     -0.00000000
         3         1         1         1         2         6     -0.00000000
         3         1         1         1         3         1      0.00000000
         3         1         1         1         3         2     -0.00000000
         3         1         1         1         3         3      0.00000000
         3         1         1         1         3         4     -0.00739793
         3         1         1         1         3         5      0.00000000
         3         1         1         1         3         6      0.00000000
         3         1         1         1         4         1      0.00000000
         3         1         1         1         4         2     -0.00291486
         3         1         1         1         4         3      0.00739793
         3         1         1         1         4         4      0.00000000
         3         1         1         1         4         5     -0.00231317
         3         1         1         1         4         6     -0.00207534
         3         1         1         1         5         1      0.00000000
         3         1         1         1         5         2      0.00000000
         3         1         1         1         5         3     -0.00000000
         3         1         1         1         5         4      0.00231317
         3         1         1         1         5         5      0.00000000
         3         1         1         1         5         6      0.00000000
         3         1         1         1         6         1      0.00000000
         3         1         1         1         6         2      0.00000000
         3         1         1         1         6         3     -0.00000000
         3         1         1         1         6         4      0.00207534
         3         1         1         1         6         5     -0.00000000
         3         1         1         1         6         6      0.00000000
         3         1         2         2         1         1      0.00000000
         3         2         1         1         1         1      0.00000000
         3         2         1         1         1         2      0.00000000
         3         2         1         1         1         3      0.00000000
         3         2         1         1         1         4      0.00000000
         3         2         1         1         1         5      0.00000000
         3         2         1         1         1         6      0.00000000
         3         2         1         1         2         1      0.00000000
         3         2         1         1         2         2      0.00000000
         3         2         1         1         2         3      0.00000000
         3         2         1         1         2         4     -0.00193905
         3         2         1         1         2         5      0.00000000
         3         2         1         1         2         6      0.00000000
         3         2         1         1         3         1      0.00000000
         3         2         1         1         3         2     -0.00000000
         3         2         1         1         3         3      0.00000000
         3         2         1         1         3         4      0.00203815
         3         2         1         1         3         5      0.00000000
         3         2         1         1         3         6     -0.00000000
         3         2         1         1         4         1      0.00000000
         3         2         1         1         4         2      0.00193905
         3         2         1         1         4         3     -0.00203815
         3         2         1         1         4         4      0.00000000
         3         2         1         1         4         5     -0.01208308
         3         2         1         1         4         6      0.00310918
         3         2         1         1         5         1      0.00000000
         3         2         1         1         5         2     -0.00000000
         3         2         1         1         5         3     -0.00000000
         3         2         1         1         5         4      0.01208308
         3         2         1         1         5         5      0.00000000
         3         2         1         1         5         6     -0.00000000
         3         2         1         1         6         1      0.00000000
         3         2         1         1         6         2     -0.00000000
         3         2         1         1         6         3      0.00000000
         3         2         1         1         6         4     -0.00310918
         3         2         1         1         6         5      0.00000000
         3         2         1         1         6         6      0.00000000
         3         2         2         2         1         1      0.00000000
         4         1         1         2         1         1      0.00000000
         4         1         1         2         2         1      0.00294820
         4         1         1         2         3         1     -0.00780812
         4         1         1         2         4         1      0.00000000
         4         1         1         2         5         1      0.00246878
         4         1         1         2         6         1      0.00208812
         4         1         2         1         1         1      0.00000000
         4         1         2         1         1         2     -0.00294820
         4         1         2         1         1         3      0.00780812
         4         1         2         1         1         4     -0.00000000
         4         1         2         1         1         5     -0.00246878
         4         1         2         1         1         6     -0.00208812
         4         2         1         2         1         1      0.00000000
         4         2         1         2         2         1     -0.00206188
         4         2         1         2         3         1      0.00204684
         4         2         1         2         4         1      0.00000000
         4         2         1         2         5         1      0.01259214
         4         2         1         2         6         1     -0.00321392
         4         2         2         1         1         1      0.00000000
         4         2         2         1         1         2      0.00206188
         4         2         2         1         1         3     -0.00204684
         4         2         2         1         1         4     -0.00000000
         4         2         2         1         1         5     -0.01259214
         4         2         2         1         1         6      0.00321392
         4         3         1         2         1         1      0.00000000
         4         3         1         2         2         1      0.00000000
         4         3         1         2         3         1     -0.00000000
         4         3         1         2         4         1      0.01596986
         4         3         1         2         5         1     -0.00000000
         4         3         1         2         6         1     -0.00000000
         4         3         2         1         1         1      0.00000000
         4         3         2         1         1         2     -0.00000000
         4         3         2         1         1         3      0.00000000
         4         3         2         1         1         4     -0.01596986
         4         3         2         1         1         5      0.00000000
         4         3         2         1         1         6      0.00000000

         I         J         SYM. A    SYM. B    A         B      T(IJ, AB) [Beta-Beta]

         2         1         1         1         1         1      0.00000000
         2         1         1         1         1         2      0.00000000
         2         1         1         1         1         3      0.00000000
         2         1         1         1         1         4      0.00114534
         2         1         1         1         1         5     -0.00000000
         2         1         1         1         1         6      0.00000000
         2         1         1         1         2         1     -0.00000000
         2         1         1         1         2         2      0.00000000
         2         1         1         1         2         3      0.00120467
         2         1         1         1         2         4      0.00000000
         2         1         1         1         2         5      0.00503303
         2         1         1         1         2         6      0.00012139
         2         1         1         1         3         1     -0.00000000
         2         1         1         1         3         2     -0.00120467
         2         1         1         1         3         3      0.00000000
         2         1         1         1         3         4     -0.00000000
         2         1         1         1         3         5     -0.00437099
         2         1         1         1         3         6     -0.00155686
         2         1         1         1         4         1     -0.00114534
         2         1         1         1         4         2     -0.00000000
         2         1         1         1         4         3      0.00000000
         2         1         1         1         4         4      0.00000000
         2         1         1         1         4         5      0.00000000
         2         1         1         1         4         6     -0.00000000
         2         1         1         1         5         1      0.00000000
         2         1         1         1         5         2     -0.00503303
         2         1         1         1         5         3      0.00437099
         2         1         1         1         5         4     -0.00000000
         2         1         1         1         5         5      0.00000000
         2         1         1         1         5         6     -0.00531331
         2         1         1         1         6         1     -0.00000000
         2         1         1         1         6         2     -0.00012139
         2         1         1         1         6         3      0.00155686
         2         1         1         1         6         4      0.00000000
         2         1         1         1         6         5      0.00531331
         2         1         1         1         6         6      0.00000000
         2         1         2         2         1         1      0.00000000
         4         1         1         2         1         1      0.00000000
         4         1         1         2         2         1      0.00302390
         4         1         1         2         3         1     -0.00804001
         4         1         1         2         4         1      0.00000000
         4         1         1         2         5         1      0.00270400
         4         1         1         2         6         1      0.00209130
         4         1         2         1         1         1     -0.00000000
         4         1         2         1         1         2     -0.00302390
         4         1         2         1         1         3      0.00804001
         4         1         2         1         1         4     -0.00000000
         4         1         2         1         1         5     -0.00270400
         4         1         2         1         1         6     -0.00209130
         4         2         1         2         1         1      0.00000000
         4         2         1         2         2         1     -0.00205111
         4         2         1         2         3         1      0.00200701
         4         2         1         2         4         1      0.00000000
         4         2         1         2         5         1      0.01297069
         4         2         1         2         6         1     -0.00323872
         4         2         2         1         1         1     -0.00000000
         4         2         2         1         1         2      0.00205111
         4         2         2         1         1         3     -0.00200701
         4         2         2         1         1         4     -0.00000000
         4         2         2         1         1         5     -0.01297069
         4         2         2         1         1         6      0.00323872

         I         J         SYM. A    SYM. B    A         B      T(IJ, AB) [Alpha-Beta]

         1         1         1         1         1         1      0.00000000
         1         1         1         1         1         2      0.00000000
         1         1         1         1         1         3      0.00000000
         1         1         1         1         1         4      0.00000000
         1         1         1         1         1         5      0.00000000
         1         1         1         1         1         6      0.00000000
         1         1         1         1         2         1      0.00000000
         1         1         1         1         2         2     -0.00783963
         1         1         1         1         2         3      0.00143218
         1         1         1         1         2         4     -0.00000000
         1         1         1         1         2         5     -0.00083471
         1         1         1         1         2         6     -0.00951592
         1         1         1         1         3         1      0.00000000
         1         1         1         1         3         2      0.00146130
         1         1         1         1         3         3     -0.01097910
         1         1         1         1         3         4     -0.00000000
         1         1         1         1         3         5     -0.00005112
         1         1         1         1         3         6     -0.00261955
         1         1         1         1         4         1      0.00943070
         1         1         1         1         4         2     -0.00000000
         1         1         1         1         4         3      0.00000000
         1         1         1         1         4         4     -0.00416377
         1         1         1         1         4         5      0.00000000
         1         1         1         1         4         6     -0.00000000
         1         1         1         1         5         1     -0.00000000
         1         1         1         1         5         2     -0.00077837
         1         1         1         1         5         3     -0.00008225
         1         1         1         1         5         4      0.00000000
         1         1         1         1         5         5     -0.00299987
         1         1         1         1         5         6     -0.00173360
         1         1         1         1         6         1      0.00000000
         1         1         1         1         6         2     -0.00949876
         1         1         1         1         6         3     -0.00262309
         1         1         1         1         6         4     -0.00000000
         1         1         1         1         6         5     -0.00178474
         1         1         1         1         6         6     -0.01730037
         1         1         2         2         1         1     -0.00479126
         2         1         1         1         1         1      0.00000000
         2         1         1         1         1         2      0.00000000
         2         1         1         1         1         3      0.00000000
         2         1         1         1         1         4      0.00000000
         2         1         1         1         1         5      0.00000000
         2         1         1         1         1         6      0.00000000
         2         1         1         1         2         1     -0.00000000
         2         1         1         1         2         2      0.00324954
         2         1         1         1         2         3      0.00040330
         2         1         1         1         2         4      0.00000000
         2         1         1         1         2         5      0.00122901
         2         1         1         1         2         6      0.00533265
         2         1         1         1         3         1     -0.00000000
         2         1         1         1         3         2     -0.00080291
         2         1         1         1         3         3      0.00551076
         2         1         1         1         3         4      0.00000000
         2         1         1         1         3         5      0.00250903
         2         1         1         1         3         6      0.00314306
         2         1         1         1         4         1      0.00427165
         2         1         1         1         4         2     -0.00000000
         2         1         1         1         4         3      0.00000000
         2         1         1         1         4         4     -0.00217733
         2         1         1         1         4         5     -0.00000000
         2         1         1         1         4         6     -0.00000000
         2         1         1         1         5         1     -0.00000000
         2         1         1         1         5         2     -0.00375526
         2         1         1         1         5         3      0.00679120
         2         1         1         1         5         4     -0.00000000
         2         1         1         1         5         5     -0.00621884
         2         1         1         1         5         6     -0.00143128
         2         1         1         1         6         1     -0.00000000
         2         1         1         1         6         2      0.00518729
         2         1         1         1         6         3      0.00468567
         2         1         1         1         6         4      0.00000000
         2         1         1         1         6         5      0.00384265
         2         1         1         1         6         6      0.01121816
         2         1         2         2         1         1     -0.00249768
         1         2         1         1         1         1      0.00000000
         1         2         1         1         1         2      0.00000000
         1         2         1         1         1         3      0.00000000
         1         2         1         1         1         4      0.00000000
         1         2         1         1         1         5      0.00000000
         1         2         1         1         1         6      0.00000000
         1         2         1         1         2         1      0.00000000
         1         2         1         1         2         2      0.00335731
         1         2         1         1         2         3     -0.00068991
         1         2         1         1         2         4     -0.00000000
         1         2         1         1         2         5     -0.00376140
         1         2         1         1         2         6      0.00520169
         1         2         1         1         3         1     -0.00000000
         1         2         1         1         3         2      0.00046286
         1         2         1         1         3         3      0.00539230
         1         2         1         1         3         4      0.00000000
         1         2         1         1         3         5      0.00672862
         1         2         1         1         3         6      0.00468208
         1         2         1         1         4         1      0.00539537
         1         2         1         1         4         2      0.00000000
         1         2         1         1         4         3      0.00000000
         1         2         1         1         4         4     -0.00212281
         1         2         1         1         4         5     -0.00000000
         1         2         1         1         4         6      0.00000000
         1         2         1         1         5         1     -0.00000000
         1         2         1         1         5         2      0.00114948
         1         2         1         1         5         3      0.00243844
         1         2         1         1         5         4     -0.00000000
         1         2         1         1         5         5     -0.00593005
         1         2         1         1         5         6      0.00371226
         1         2         1         1         6         1     -0.00000000
         1         2         1         1         6         2      0.00529677
         1         2         1         1         6         3      0.00315630
         1         2         1         1         6         4     -0.00000000
         1         2         1         1         6         5     -0.00151907
         1         2         1         1         6         6      0.01114854
         1         2         2         2         1         1     -0.00247914
         2         2         1         1         1         1      0.00000000
         2         2         1         1         1         2      0.00000000
         2         2         1         1         1         3      0.00000000
         2         2         1         1         1         4      0.00000000
         2         2         1         1         1         5      0.00000000
         2         2         1         1         1         6      0.00000000
         2         2         1         1         2         1      0.00000000
         2         2         1         1         2         2     -0.01741738
         2         2         1         1         2         3     -0.00499189
         2         2         1         1         2         4      0.00000000
         2         2         1         1         2         5      0.00264951
         2         2         1         1         2         6     -0.01258571
         2         2         1         1         3         1     -0.00000000
         2         2         1         1         3         2     -0.00501319
         2         2         1         1         3         3     -0.00671315
         2         2         1         1         3         4      0.00000000
         2         2         1         1         3         5      0.00064683
         2         2         1         1         3         6     -0.00725234
         2         2         1         1         4         1      0.00657247
         2         2         1         1         4         2      0.00000000
         2         2         1         1         4         3      0.00000000
         2         2         1         1         4         4     -0.00368953
         2         2         1         1         4         5     -0.00000000
         2         2         1         1         4         6      0.00000000
         2         2         1         1         5         1     -0.00000000
         2         2         1         1         5         2      0.00253197
         2         2         1         1         5         3      0.00065702
         2         2         1         1         5         4     -0.00000000
         2         2         1         1         5         5     -0.02134717
         2         2         1         1         5         6      0.00625065
         2         2         1         1         6         1      0.00000000
         2         2         1         1         6         2     -0.01260988
         2         2         1         1         6         3     -0.00723024
         2         2         1         1         6         4      0.00000000
         2         2         1         1         6         5      0.00632674
         2         2         1         1         6         6     -0.01826460
         2         2         2         2         1         1     -0.00417852
         3         1         1         1         1         1      0.00000000
         3         1         1         1         1         2      0.00000000
         3         1         1         1         1         3      0.00000000
         3         1         1         1         1         4      0.00000000
         3         1         1         1         1         5      0.00000000
         3         1         1         1         1         6      0.00000000
         3         1         1         1         2         1      0.01267240
         3         1         1         1         2         2     -0.00000000
         3         1         1         1         2         3      0.00000000
         3         1         1         1         2         4     -0.00320469
         3         1         1         1         2         5      0.00000000
         3         1         1         1         2         6     -0.00000000
         3         1         1         1         3         1      0.00553499
         3         1         1         1         3         2      0.00000000
         3         1         1         1         3         3     -0.00000000
         3         1         1         1         3         4      0.00180562
         3         1         1         1         3         5     -0.00000000
         3         1         1         1         3         6      0.00000000
         3         1         1         1         4         1     -0.00000000
         3         1         1         1         4         2     -0.00669076
         3         1         1         1         4         3      0.00917763
         3         1         1         1         4         4     -0.00000000
         3         1         1         1         4         5     -0.00515323
         3         1         1         1         4         6     -0.00594867
         3         1         1         1         5         1      0.00137914
         3         1         1         1         5         2      0.00000000
         3         1         1         1         5         3     -0.00000000
         3         1         1         1         5         4     -0.00255806
         3         1         1         1         5         5      0.00000000
         3         1         1         1         5         6      0.00000000
         3         1         1         1         6         1      0.01019834
         3         1         1         1         6         2     -0.00000000
         3         1         1         1         6         3      0.00000000
         3         1         1         1         6         4     -0.00357679
         3         1         1         1         6         5      0.00000000
         3         1         1         1         6         6      0.00000000
         3         1         2         2         1         1      0.00000000
         3         2         1         1         1         1      0.00000000
         3         2         1         1         1         2      0.00000000
         3         2         1         1         1         3      0.00000000
         3         2         1         1         1         4      0.00000000
         3         2         1         1         1         5      0.00000000
         3         2         1         1         1         6      0.00000000
         3         2         1         1         2         1      0.00645689
         3         2         1         1         2         2     -0.00000000
         3         2         1         1         2         3     -0.00000000
         3         2         1         1         2         4     -0.00105102
         3         2         1         1         2         5     -0.00000000
         3         2         1         1         2         6     -0.00000000
         3         2         1         1         3         1      0.00370150
         3         2         1         1         3         2     -0.00000000
         3         2         1         1         3         3      0.00000000
         3         2         1         1         3         4      0.00121891
         3         2         1         1         3         5      0.00000000
         3         2         1         1         3         6     -0.00000000
         3         2         1         1         4         1      0.00000000
         3         2         1         1         4         2      0.00052313
         3         2         1         1         4         3     -0.00092877
         3         2         1         1         4         4     -0.00000000
         3         2         1         1         4         5     -0.01676338
         3         2         1         1         4         6      0.00230249
         3         2         1         1         5         1      0.00341184
         3         2         1         1         5         2     -0.00000000
         3         2         1         1         5         3      0.00000000
         3         2         1         1         5         4     -0.00421941
         3         2         1         1         5         5      0.00000000
         3         2         1         1         5         6     -0.00000000
         3         2         1         1         6         1      0.00212992
         3         2         1         1         6         2     -0.00000000
         3         2         1         1         6         3     -0.00000000
         3         2         1         1         6         4     -0.00073560
         3         2         1         1         6         5      0.00000000
         3         2         1         1         6         6     -0.00000000
         3         2         2         2         1         1      0.00000000
         4         4         1         1         1         1      0.00000000
         4         4         1         1         1         2      0.00000000
         4         4         1         1         1         3      0.00000000
         4         4         1         1         1         4      0.00000000
         4         4         1         1         1         5      0.00000000
         4         4         1         1         1         6      0.00000000
         4         4         1         1         2         1      0.00000000
         4         4         1         1         2         2     -0.00748237
         4         4         1         1         2         3     -0.00293950
         4         4         1         1         2         4     -0.00000000
         4         4         1         1         2         5     -0.00024865
         4         4         1         1         2         6     -0.00507568
         4         4         1         1         3         1     -0.00000000
         4         4         1         1         3         2     -0.00293978
         4         4         1         1         3         3     -0.00861419
         4         4         1         1         3         4      0.00000000
         4         4         1         1         3         5      0.00390113
         4         4         1         1         3         6     -0.00056193
         4         4         1         1         4         1      0.00409144
         4         4         1         1         4         2     -0.00000000
         4         4         1         1         4         3      0.00000000
         4         4         1         1         4         4     -0.00304916
         4         4         1         1         4         5     -0.00000000
         4         4         1         1         4         6     -0.00000000
         4         4         1         1         5         1     -0.00000000
         4         4         1         1         5         2     -0.00024822
         4         4         1         1         5         3      0.00390603
         4         4         1         1         5         4     -0.00000000
         4         4         1         1         5         5     -0.00632616
         4         4         1         1         5         6     -0.00052554
         4         4         1         1         6         1     -0.00000000
         4         4         1         1         6         2     -0.00510198
         4         4         1         1         6         3     -0.00056997
         4         4         1         1         6         4     -0.00000000
         4         4         1         1         6         5     -0.00052686
         4         4         1         1         6         6     -0.00571504
         4         4         2         2         1         1     -0.02686727
         4         1         1         2         1         1      0.00000000
         4         1         1         2         2         1     -0.00397954
         4         1         1         2         3         1      0.00150162
         4         1         1         2         4         1     -0.00000000
         4         1         1         2         5         1     -0.00264759
         4         1         1         2         6         1     -0.00408579
         4         1         2         1         1         1     -0.00000000
         4         1         2         1         1         2     -0.00695007
         4         1         2         1         1         3      0.00947372
         4         1         2         1         1         4     -0.00000000
         4         1         2         1         1         5     -0.00531718
         4         1         2         1         1         6     -0.00613234
         1         4         1         2         1         1      0.00000000
         1         4         1         2         2         1     -0.00685173
         1         4         1         2         3         1      0.00932935
         1         4         1         2         4         1     -0.00000000
         1         4         1         2         5         1     -0.00502424
         1         4         1         2         6         1     -0.00611803
         1         4         2         1         1         1     -0.00000000
         1         4         2         1         1         2     -0.00385216
         1         4         2         1         1         3      0.00145643
         1         4         2         1         1         4     -0.00000000
         1         4         2         1         1         5     -0.00252552
         1         4         2         1         1         6     -0.00398626
         4         2         1         2         1         1      0.00000000
         4         2         1         2         2         1     -0.00150303
         4         2         1         2         3         1      0.00101434
         4         2         1         2         4         1     -0.00000000
         4         2         1         2         5         1     -0.00456054
         4         2         1         2         6         1     -0.00086173
         4         2         2         1         1         1     -0.00000000
         4         2         2         1         1         2      0.00053590
         4         2         2         1         1         3     -0.00098732
         4         2         2         1         1         4     -0.00000000
         4         2         2         1         1         5     -0.01739069
         4         2         2         1         1         6      0.00236672
         2         4         1         2         1         1      0.00000000
         2         4         1         2         2         1      0.00066898
         2         4         1         2         3         1     -0.00109058
         2         4         1         2         4         1     -0.00000000
         2         4         1         2         5         1     -0.01718762
         2         4         1         2         6         1      0.00243319
         2         4         2         1         1         1      0.00000000
         2         4         2         1         1         2     -0.00140673
         2         4         2         1         1         3      0.00096293
         2         4         2         1         1         4     -0.00000000
         2         4         2         1         1         5     -0.00446050
         2         4         2         1         1         6     -0.00079214
         3         4         1         2         1         1      0.00000000
         3         4         1         2         2         1     -0.00000000
         3         4         1         2         3         1      0.00000000
         3         4         1         2         4         1     -0.01936532
         3         4         1         2         5         1      0.00000000
         3         4         1         2         6         1      0.00000000
         3         4         2         1         1         1      0.00451648
         3         4         2         1         1         2     -0.00000000
         3         4         2         1         1         3      0.00000000
         3         4         2         1         1         4     -0.00295743
         3         4         2         1         1         5      0.00000000
         3         4         2         1         1         6      0.00000000

 Spin contamination <S**2-Sz**2-Sz>     0.00004212
  Reference energy                   -459.154448060106
  RHF-RMP2 correlation energy          -0.025401548516
 !RHF-RMP2 energy                    -459.179849608622

 Starting UCCSD calculation

 ITER.      SQ.NORM     CORR.ENERGY   TOTAL ENERGY   ENERGY CHANGE        DEN1      VAR(S)    VAR(P)  DIIS     TIME
   1      1.01152097    -0.02962365  -459.18407171    -0.02962365    -0.00159147  0.94D-04  0.45D-03  1  1     0.02
   2      1.01350819    -0.03176213  -459.18621019    -0.00213848    -0.00003043  0.52D-05  0.89D-05  2  2     0.02
   3      1.01372073    -0.03189140  -459.18633946    -0.00012927    -0.00000170  0.22D-06  0.64D-06  3  3     0.02
   4      1.01375138    -0.03190372  -459.18635178    -0.00001232    -0.00000011  0.83D-08  0.44D-07  4  4     0.03
   5      1.01375371    -0.03190329  -459.18635135     0.00000044    -0.00000000  0.68D-09  0.12D-08  5  5     0.03
   6      1.01375447    -0.03190373  -459.18635179    -0.00000044    -0.00000000  0.38D-10  0.39D-10  6  6     0.03
   7      1.01375441    -0.03190363  -459.18635169     0.00000009    -0.00000000  0.14D-11  0.29D-11  6  1     0.03
   8      1.01375441    -0.03190363  -459.18635169     0.00000001    -0.00000000  0.48D-13  0.14D-12  6  2     0.04
   9      1.01375443    -0.03190364  -459.18635170    -0.00000001    -0.00000000  0.40D-14  0.90D-14  6  3     0.04
  10      1.01375442    -0.03190364  -459.18635170     0.00000000    -0.00000000  0.17D-15  0.46D-15  6  4     0.04
  11      1.01375442    -0.03190364  -459.18635170     0.00000000    -0.00000000  0.26D-16  0.38D-16  6  5     0.05
  12      1.01375442    -0.03190364  -459.18635170     0.00000000    -0.00000000  0.51D-18  0.28D-17  6  6     0.05
  13      1.01375442    -0.03190364  -459.18635170    -0.00000000    -0.00000000  0.59D-19  0.27D-18  6  1     0.05
  14      1.01375442    -0.03190364  -459.18635170     0.00000000    -0.00000000  0.10D-19  0.11D-19  6  2     0.06
  15      1.01375442    -0.03190364  -459.18635170    -0.00000000    -0.00000000  0.90D-21  0.13D-20  6  3     0.06
  16      1.01375442    -0.03190364  -459.18635170    -0.00000000    -0.00000000  0.42D-22  0.74D-22  6  4     0.06
  17      1.01375442    -0.03190364  -459.18635170     0.00000000    -0.00000000  0.27D-23  0.61D-23  6  5     0.06
  18      1.01375442    -0.03190364  -459.18635170     0.00000000    -0.00000000  0.99D-25  0.71D-24  6  6     0.07

 Norm of t1 vector:      0.02778908      S-energy:    -0.00079275      T1 diagnostic:  0.00374631
                                                                       D1 diagnostic:  0.00692668
 Norm of t2 vector:      0.11393941      P-energy:    -0.03111089
                                         Alpha-Beta:  -0.02754230
                                         Alpha-Alpha: -0.00250880
                                         Beta-Beta:   -0.00105979

 Singles amplitudes (print threshold =  0.000E+00):

         I         SYM. A    A   T(IA) [Alpha-Alpha]

         1         1         1      0.00000000
         1         1         2     -0.01067460
         1         1         3     -0.00565161
         1         1         4      0.00000000
         1         1         5     -0.00020074
         1         1         6     -0.00860819
         2         1         1      0.00000000
         2         1         2     -0.00571743
         2         1         3     -0.00148761
         2         1         4      0.00000000
         2         1         5      0.00087046
         2         1         6     -0.00207817
         3         1         1      0.00000000
         3         1         2     -0.00000000
         3         1         3      0.00000000
         3         1         4      0.00563342
         3         1         5     -0.00000000
         3         1         6     -0.00000000
         4         2         1      0.00071122

         I         SYM. A    A   T(IA) [Beta-Beta]

         1         1         1     -0.00000000
         1         1         2      0.01050165
         1         1         3      0.00184773
         1         1         4      0.00000000
         1         1         5      0.00273442
         1         1         6      0.00763838
         2         1         1      0.00000000
         2         1         2      0.00531359
         2         1         3      0.00348828
         2         1         4      0.00000000
         2         1         5      0.00931950
         2         1         6     -0.00070203
         3         1         1      0.00000000
         3         1         2      0.00000000
         3         1         3      0.00000000
         3         1         4      0.00000000
         3         1         5      0.00000000
         3         1         6      0.00000000
         4         2         1      0.01314213

 Doubles amplitudes (print threshold =  0.000E+00):

         I         J         SYM. A    SYM. B    A         B      T(IJ, AB) [Alpha-Alpha]

         2         1         1         1         1         1      0.00000000
         2         1         1         1         1         2      0.00000000
         2         1         1         1         1         3      0.00000000
         2         1         1         1         1         4      0.00000000
         2         1         1         1         1         5      0.00000000
         2         1         1         1         1         6      0.00000000
         2         1         1         1         2         1      0.00000000
         2         1         1         1         2         2     -0.00000000
         2         1         1         1         2         3      0.00146393
         2         1         1         1         2         4      0.00000000
         2         1         1         1         2         5      0.00520613
         2         1         1         1         2         6     -0.00009254
         2         1         1         1         3         1      0.00000000
         2         1         1         1         3         2     -0.00146393
         2         1         1         1         3         3     -0.00000000
         2         1         1         1         3         4     -0.00000000
         2         1         1         1         3         5     -0.00483582
         2         1         1         1         3         6     -0.00222521
         2         1         1         1         4         1      0.00000000
         2         1         1         1         4         2     -0.00000000
         2         1         1         1         4         3      0.00000000
         2         1         1         1         4         4      0.00000000
         2         1         1         1         4         5      0.00000000
         2         1         1         1         4         6     -0.00000000
         2         1         1         1         5         1      0.00000000
         2         1         1         1         5         2     -0.00520613
         2         1         1         1         5         3      0.00483582
         2         1         1         1         5         4     -0.00000000
         2         1         1         1         5         5      0.00000000
         2         1         1         1         5         6     -0.00560281
         2         1         1         1         6         1      0.00000000
         2         1         1         1         6         2      0.00009254
         2         1         1         1         6         3      0.00222521
         2         1         1         1         6         4      0.00000000
         2         1         1         1         6         5      0.00560281
         2         1         1         1         6         6      0.00000000
         2         1         2         2         1         1      0.00000000
         3         1         1         1         1         1      0.00000000
         3         1         1         1         1         2      0.00000000
         3         1         1         1         1         3      0.00000000
         3         1         1         1         1         4      0.00000000
         3         1         1         1         1         5      0.00000000
         3         1         1         1         1         6      0.00000000
         3         1         1         1         2         1      0.00000000
         3         1         1         1         2         2      0.00000000
         3         1         1         1         2         3     -0.00000000
         3         1         1         1         2         4      0.00336582
         3         1         1         1         2         5     -0.00000000
         3         1         1         1         2         6      0.00000000
         3         1         1         1         3         1      0.00000000
         3         1         1         1         3         2      0.00000000
         3         1         1         1         3         3      0.00000000
         3         1         1         1         3         4     -0.00855431
         3         1         1         1         3         5      0.00000000
         3         1         1         1         3         6      0.00000000
         3         1         1         1         4         1      0.00000000
         3         1         1         1         4         2     -0.00336582
         3         1         1         1         4         3      0.00855431
         3         1         1         1         4         4      0.00000000
         3         1         1         1         4         5     -0.00275242
         3         1         1         1         4         6     -0.00212508
         3         1         1         1         5         1      0.00000000
         3         1         1         1         5         2      0.00000000
         3         1         1         1         5         3     -0.00000000
         3         1         1         1         5         4      0.00275242
         3         1         1         1         5         5      0.00000000
         3         1         1         1         5         6      0.00000000
         3         1         1         1         6         1      0.00000000
         3         1         1         1         6         2     -0.00000000
         3         1         1         1         6         3     -0.00000000
         3         1         1         1         6         4      0.00212508
         3         1         1         1         6         5     -0.00000000
         3         1         1         1         6         6     -0.00000000
         3         1         2         2         1         1      0.00000000
         3         2         1         1         1         1      0.00000000
         3         2         1         1         1         2      0.00000000
         3         2         1         1         1         3      0.00000000
         3         2         1         1         1         4      0.00000000
         3         2         1         1         1         5      0.00000000
         3         2         1         1         1         6      0.00000000
         3         2         1         1         2         1      0.00000000
         3         2         1         1         2         2     -0.00000000
         3         2         1         1         2         3      0.00000000
         3         2         1         1         2         4     -0.00166283
         3         2         1         1         2         5      0.00000000
         3         2         1         1         2         6     -0.00000000
         3         2         1         1         3         1      0.00000000
         3         2         1         1         3         2     -0.00000000
         3         2         1         1         3         3     -0.00000000
         3         2         1         1         3         4      0.00249411
         3         2         1         1         3         5     -0.00000000
         3         2         1         1         3         6     -0.00000000
         3         2         1         1         4         1      0.00000000
         3         2         1         1         4         2      0.00166283
         3         2         1         1         4         3     -0.00249411
         3         2         1         1         4         4     -0.00000000
         3         2         1         1         4         5     -0.01365235
         3         2         1         1         4         6      0.00293447
         3         2         1         1         5         1      0.00000000
         3         2         1         1         5         2     -0.00000000
         3         2         1         1         5         3      0.00000000
         3         2         1         1         5         4      0.01365235
         3         2         1         1         5         5      0.00000000
         3         2         1         1         5         6     -0.00000000
         3         2         1         1         6         1      0.00000000
         3         2         1         1         6         2      0.00000000
         3         2         1         1         6         3      0.00000000
         3         2         1         1         6         4     -0.00293447
         3         2         1         1         6         5      0.00000000
         3         2         1         1         6         6     -0.00000000
         3         2         2         2         1         1      0.00000000
         4         1         1         2         1         1      0.00000000
         4         1         1         2         2         1      0.00287539
         4         1         1         2         3         1     -0.00906863
         4         1         1         2         4         1      0.00000000
         4         1         1         2         5         1      0.00277711
         4         1         1         2         6         1      0.00181779
         4         1         2         1         1         1      0.00000000
         4         1         2         1         1         2     -0.00287539
         4         1         2         1         1         3      0.00906863
         4         1         2         1         1         4     -0.00000000
         4         1         2         1         1         5     -0.00277711
         4         1         2         1         1         6     -0.00181779
         4         2         1         2         1         1      0.00000000
         4         2         1         2         2         1     -0.00211047
         4         2         1         2         3         1      0.00226025
         4         2         1         2         4         1      0.00000000
         4         2         1         2         5         1      0.01384767
         4         2         1         2         6         1     -0.00311665
         4         2         2         1         1         1      0.00000000
         4         2         2         1         1         2      0.00211047
         4         2         2         1         1         3     -0.00226025
         4         2         2         1         1         4     -0.00000000
         4         2         2         1         1         5     -0.01384767
         4         2         2         1         1         6      0.00311665
         4         3         1         2         1         1      0.00000000
         4         3         1         2         2         1     -0.00000000
         4         3         1         2         3         1     -0.00000000
         4         3         1         2         4         1      0.01821880
         4         3         1         2         5         1     -0.00000000
         4         3         1         2         6         1     -0.00000000
         4         3         2         1         1         1      0.00000000
         4         3         2         1         1         2      0.00000000
         4         3         2         1         1         3      0.00000000
         4         3         2         1         1         4     -0.01821880
         4         3         2         1         1         5      0.00000000
         4         3         2         1         1         6      0.00000000

         I         J         SYM. A    SYM. B    A         B      T(IJ, AB) [Beta-Beta]

         2         1         1         1         1         1      0.00000000
         2         1         1         1         1         2     -0.00000000
         2         1         1         1         1         3      0.00000000
         2         1         1         1         1         4      0.00165873
         2         1         1         1         1         5     -0.00000000
         2         1         1         1         1         6     -0.00000000
         2         1         1         1         2         1      0.00000000
         2         1         1         1         2         2     -0.00000000
         2         1         1         1         2         3      0.00164276
         2         1         1         1         2         4      0.00000000
         2         1         1         1         2         5      0.00523261
         2         1         1         1         2         6     -0.00012316
         2         1         1         1         3         1     -0.00000000
         2         1         1         1         3         2     -0.00164276
         2         1         1         1         3         3      0.00000000
         2         1         1         1         3         4     -0.00000000
         2         1         1         1         3         5     -0.00460091
         2         1         1         1         3         6     -0.00216699
         2         1         1         1         4         1     -0.00165873
         2         1         1         1         4         2     -0.00000000
         2         1         1         1         4         3      0.00000000
         2         1         1         1         4         4      0.00000000
         2         1         1         1         4         5     -0.00000000
         2         1         1         1         4         6     -0.00000000
         2         1         1         1         5         1      0.00000000
         2         1         1         1         5         2     -0.00523261
         2         1         1         1         5         3      0.00460091
         2         1         1         1         5         4      0.00000000
         2         1         1         1         5         5     -0.00000000
         2         1         1         1         5         6     -0.00536596
         2         1         1         1         6         1      0.00000000
         2         1         1         1         6         2      0.00012316
         2         1         1         1         6         3      0.00216699
         2         1         1         1         6         4      0.00000000
         2         1         1         1         6         5      0.00536596
         2         1         1         1         6         6     -0.00000000
         2         1         2         2         1         1      0.00000000
         4         1         1         2         1         1      0.00000000
         4         1         1         2         2         1      0.00287627
         4         1         1         2         3         1     -0.00902444
         4         1         1         2         4         1      0.00000000
         4         1         1         2         5         1      0.00289047
         4         1         1         2         6         1      0.00136393
         4         1         2         1         1         1     -0.00000000
         4         1         2         1         1         2     -0.00287627
         4         1         2         1         1         3      0.00902444
         4         1         2         1         1         4     -0.00000000
         4         1         2         1         1         5     -0.00289047
         4         1         2         1         1         6     -0.00136393
         4         2         1         2         1         1      0.00000000
         4         2         1         2         2         1     -0.00200548
         4         2         1         2         3         1      0.00249476
         4         2         1         2         4         1      0.00000000
         4         2         1         2         5         1      0.01406007
         4         2         1         2         6         1     -0.00332141
         4         2         2         1         1         1     -0.00000000
         4         2         2         1         1         2      0.00200548
         4         2         2         1         1         3     -0.00249476
         4         2         2         1         1         4     -0.00000000
         4         2         2         1         1         5     -0.01406007
         4         2         2         1         1         6      0.00332141

         I         J         SYM. A    SYM. B    A         B      T(IJ, AB) [Alpha-Beta]

         1         1         1         1         1         1      0.00000000
         1         1         1         1         1         2      0.00000000
         1         1         1         1         1         3      0.00000000
         1         1         1         1         1         4      0.00000000
         1         1         1         1         1         5      0.00000000
         1         1         1         1         1         6      0.00000000
         1         1         1         1         2         1      0.00000000
         1         1         1         1         2         2     -0.00900496
         1         1         1         1         2         3      0.00158446
         1         1         1         1         2         4     -0.00000000
         1         1         1         1         2         5     -0.00130810
         1         1         1         1         2         6     -0.01215871
         1         1         1         1         3         1      0.00000000
         1         1         1         1         3         2      0.00197285
         1         1         1         1         3         3     -0.01221113
         1         1         1         1         3         4     -0.00000000
         1         1         1         1         3         5      0.00001808
         1         1         1         1         3         6     -0.00330663
         1         1         1         1         4         1      0.01222252
         1         1         1         1         4         2     -0.00000000
         1         1         1         1         4         3      0.00000000
         1         1         1         1         4         4     -0.00520129
         1         1         1         1         4         5      0.00000000
         1         1         1         1         4         6     -0.00000000
         1         1         1         1         5         1     -0.00000000
         1         1         1         1         5         2     -0.00122189
         1         1         1         1         5         3      0.00003864
         1         1         1         1         5         4      0.00000000
[...]
         1         2         1         1         3         6      0.00634778
         1         2         1         1         4         1      0.00830215
         1         2         1         1         4         2     -0.00000000
         1         2         1         1         4         3      0.00000000
         1         2         1         1         4         4     -0.00324694
         1         2         1         1         4         5     -0.00000000
         1         2         1         1         4         6      0.00000000
         1         2         1         1         5         1     -0.00000000
         1         2         1         1         5         2      0.00075479
         1         2         1         1         5         3      0.00286984
         1         2         1         1         5         4     -0.00000000
         1         2         1         1         5         5     -0.00750414
         1         2         1         1         5         6      0.00388973
         1         2         1         1         6         1      0.00000000
         1         2         1         1         6         2      0.00772133
         1         2         1         1         6         3      0.00434249
         1         2         1         1         6         4     -0.00000000
         1         2         1         1         6         5     -0.00144152
         1         2         1         1         6         6      0.01467173
         1         2         2         2         1         1     -0.00316188
         2         2         1         1         1         1      0.00000000
         2         2         1         1         1         2      0.00000000
         2         2         1         1         1         3      0.00000000
         2         2         1         1         1         4      0.00000000
         2         2         1         1         1         5      0.00000000
         2         2         1         1         1         6      0.00000000
         2         2         1         1         2         1     -0.00000000
         2         2         1         1         2         2     -0.02205441
         2         2         1         1         2         3     -0.00697193
         2         2         1         1         2         4      0.00000000
         2         2         1         1         2         5      0.00344046
         2         2         1         1         2         6     -0.01685233
         2         2         1         1         3         1     -0.00000000
         2         2         1         1         3         2     -0.00691633
         2         2         1         1         3         3     -0.00783153
         2         2         1         1         3         4      0.00000000
         2         2         1         1         3         5      0.00181680
         2         2         1         1         3         6     -0.00993174
         2         2         1         1         4         1      0.00932222
         2         2         1         1         4         2      0.00000000
         2         2         1         1         4         3      0.00000000
         2         2         1         1         4         4     -0.00441694
         2         2         1         1         4         5     -0.00000000
         2         2         1         1         4         6      0.00000000
         2         2         1         1         5         1     -0.00000000
         2         2         1         1         5         2      0.00276688
         2         2         1         1         5         3      0.00133225
         2         2         1         1         5         4     -0.00000000
         2         2         1         1         5         5     -0.02636719
         2         2         1         1         5         6      0.00786716
         2         2         1         1         6         1     -0.00000000
         2         2         1         1         6         2     -0.01649872
         2         2         1         1         6         3     -0.00980908
         2         2         1         1         6         4      0.00000000
         2         2         1         1         6         5      0.00797599
         2         2         1         1         6         6     -0.02183699
         2         2         2         2         1         1     -0.00437109
         3         1         1         1         1         1      0.00000000
         3         1         1         1         1         2      0.00000000
         3         1         1         1         1         3      0.00000000
         3         1         1         1         1         4      0.00000000
         3         1         1         1         1         5      0.00000000
         3         1         1         1         1         6      0.00000000
         3         1         1         1         2         1      0.02093340
         3         1         1         1         2         2     -0.00000000
         3         1         1         1         2         3      0.00000000
         3         1         1         1         2         4     -0.00524625
         3         1         1         1         2         5      0.00000000
         3         1         1         1         2         6      0.00000000
         3         1         1         1         3         1      0.00737417
         3         1         1         1         3         2     -0.00000000
         3         1         1         1         3         3      0.00000000
         3         1         1         1         3         4      0.00205283
         3         1         1         1         3         5     -0.00000000
         3         1         1         1         3         6      0.00000000
         3         1         1         1         4         1      0.00000000
         3         1         1         1         4         2     -0.00866860
         3         1         1         1         4         3      0.01060456
         3         1         1         1         4         4     -0.00000000
         3         1         1         1         4         5     -0.00633958
         3         1         1         1         4         6     -0.00716738
         3         1         1         1         5         1      0.00291943
         3         1         1         1         5         2      0.00000000
         3         1         1         1         5         3     -0.00000000
         3         1         1         1         5         4     -0.00357943
         3         1         1         1         5         5      0.00000000
         3         1         1         1         5         6      0.00000000
         3         1         1         1         6         1      0.01616362
         3         1         1         1         6         2      0.00000000
         3         1         1         1         6         3      0.00000000
         3         1         1         1         6         4     -0.00496539
         3         1         1         1         6         5      0.00000000
         3         1         1         1         6         6      0.00000000
         3         1         2         2         1         1     -0.00000000
         3         2         1         1         1         1      0.00000000
         3         2         1         1         1         2      0.00000000
         3         2         1         1         1         3      0.00000000
         3         2         1         1         1         4      0.00000000
         3         2         1         1         1         5      0.00000000
         3         2         1         1         1         6      0.00000000
         3         2         1         1         2         1      0.01076037
         3         2         1         1         2         2     -0.00000000
         3         2         1         1         2         3     -0.00000000
         3         2         1         1         2         4     -0.00184521
         3         2         1         1         2         5      0.00000000
         3         2         1         1         2         6     -0.00000000
         3         2         1         1         3         1      0.00473848
         3         2         1         1         3         2     -0.00000000
         3         2         1         1         3         3     -0.00000000
         3         2         1         1         3         4      0.00141837
         3         2         1         1         3         5     -0.00000000
         3         2         1         1         3         6     -0.00000000
         3         2         1         1         4         1      0.00000000
         3         2         1         1         4         2     -0.00018287
         3         2         1         1         4         3     -0.00106007
         3         2         1         1         4         4     -0.00000000
         3         2         1         1         4         5     -0.02045261
         3         2         1         1         4         6      0.00260056
         3         2         1         1         5         1      0.00833729
         3         2         1         1         5         2     -0.00000000
         3         2         1         1         5         3      0.00000000
         3         2         1         1         5         4     -0.00679320
         3         2         1         1         5         5      0.00000000
         3         2         1         1         5         6     -0.00000000
         3         2         1         1         6         1      0.00130593
         3         2         1         1         6         2     -0.00000000
         3         2         1         1         6         3     -0.00000000
         3         2         1         1         6         4     -0.00032608
         3         2         1         1         6         5      0.00000000
         3         2         1         1         6         6     -0.00000000
         3         2         2         2         1         1     -0.00000000
         4         4         1         1         1         1      0.00000000
         4         4         1         1         1         2      0.00000000
         4         4         1         1         1         3      0.00000000
         4         4         1         1         1         4      0.00000000
         4         4         1         1         1         5      0.00000000
         4         4         1         1         1         6      0.00000000
         4         4         1         1         2         1     -0.00000000
         4         4         1         1         2         2     -0.00916084
         4         4         1         1         2         3     -0.00330270
         4         4         1         1         2         4     -0.00000000
         4         4         1         1         2         5     -0.00057430
         4         4         1         1         2         6     -0.00626852
         4         4         1         1         3         1     -0.00000000
         4         4         1         1         3         2     -0.00328582
         4         4         1         1         3         3     -0.01076669
         4         4         1         1         3         4      0.00000000
         4         4         1         1         3         5      0.00582230
         4         4         1         1         3         6     -0.00039321
         4         4         1         1         4         1      0.00619655
         4         4         1         1         4         2     -0.00000000
         4         4         1         1         4         3      0.00000000
         4         4         1         1         4         4     -0.00311138
         4         4         1         1         4         5     -0.00000000
         4         4         1         1         4         6     -0.00000000
         4         4         1         1         5         1     -0.00000000
         4         4         1         1         5         2     -0.00057211
         4         4         1         1         5         3      0.00583805
         4         4         1         1         5         4     -0.00000000
         4         4         1         1         5         5     -0.00778129
         4         4         1         1         5         6     -0.00101458
         4         4         1         1         6         1     -0.00000000
         4         4         1         1         6         2     -0.00646989
         4         4         1         1         6         3     -0.00047713
         4         4         1         1         6         4     -0.00000000
         4         4         1         1         6         5     -0.00104408
         4         4         1         1         6         6     -0.00590674
         4         4         2         2         1         1     -0.03364337
         4         1         1         2         1         1      0.00000000
         4         1         1         2         2         1     -0.00566620
         4         1         1         2         3         1      0.00237044
         4         1         1         2         4         1     -0.00000000
         4         1         1         2         5         1     -0.00367240
         4         1         1         2         6         1     -0.00588055
         4         1         2         1         1         1     -0.00000000
         4         1         2         1         1         2     -0.00867864
         4         1         2         1         1         3      0.01116092
         4         1         2         1         1         4     -0.00000000
         4         1         2         1         1         5     -0.00653743
         4         1         2         1         1         6     -0.00724480
         1         4         1         2         1         1      0.00000000
         1         4         1         2         2         1     -0.00826111
         1         4         1         2         3         1      0.01166520
         1         4         1         2         4         1     -0.00000000
         1         4         1         2         5         1     -0.00632008
         1         4         1         2         6         1     -0.00757192
         1         4         2         1         1         1     -0.00000000
         1         4         2         1         1         2     -0.00579627
         1         4         2         1         1         3      0.00226558
         1         4         2         1         1         4     -0.00000000
         1         4         2         1         1         5     -0.00355744
         1         4         2         1         1         6     -0.00596611
         4         2         1         2         1         1      0.00000000
         4         2         1         2         2         1     -0.00174274
         4         2         1         2         3         1      0.00174859
         4         2         1         2         4         1     -0.00000000
         4         2         1         2         5         1     -0.00710270
         4         2         1         2         6         1     -0.00046948
         4         2         2         1         1         1     -0.00000000
         4         2         2         1         1         2      0.00006818
         4         2         2         1         1         3     -0.00082669
         4         2         2         1         1         4     -0.00000000
         4         2         2         1         1         5     -0.02095264
         4         2         2         1         1         6      0.00275518
         2         4         1         2         1         1      0.00000000
         2         4         1         2         2         1      0.00066952
         2         4         1         2         3         1     -0.00049627
         2         4         1         2         4         1     -0.00000000
         2         4         1         2         5         1     -0.02094249
         2         4         1         2         6         1      0.00275330
         2         4         2         1         1         1     -0.00000000
         2         4         2         1         1         2     -0.00178172
         2         4         2         1         1         3      0.00161658
         2         4         2         1         1         4     -0.00000000
         2         4         2         1         1         5     -0.00699241
         2         4         2         1         1         6     -0.00048066
         3         4         1         2         1         1      0.00000000
         3         4         1         2         2         1      0.00000000
         3         4         1         2         3         1      0.00000000
         3         4         1         2         4         1     -0.02399227
         3         4         1         2         5         1      0.00000000
         3         4         1         2         6         1      0.00000000
         3         4         2         1         1         1      0.01232568
         3         4         2         1         1         2     -0.00000000
         3         4         2         1         1         3      0.00000000
         3         4         2         1         1         4     -0.00573471
         3         4         2         1         1         5      0.00000000
         3         4         2         1         1         6     -0.00000000

 Spin contamination <S**2-Sz**2-Sz>     0.00000285


 RESULTS
 =======

  Reference energy                   -459.154448060106
  UCCSD singles energy                 -0.000792751627
  UCCSD pair energy                    -0.031110886971
  UCCSD correlation energy             -0.031903638598

 !RHF-UCCSD energy                   -459.186351698704

 Program statistics:

 Available memory in ccsd:                39999032
 Min. memory needed in ccsd:                  4508
 Max. memory used in ccsd:                    5408
 Max. memory used in cckext:                 41151 (18 integral passes)
 Max. memory used in cckint:                 72676 ( 1 integral passes)



 **********************************************************************************************************************************
 DATASETS  * FILE   NREC   LENGTH (MB)   RECORD NAMES
              1      19       29.97       500      700      610      900      950      970     1000      129      960     1100   
                                          VAR     GEOM    BASINP   SYMINP    ZMAT    AOBASIS   BASIS     P2S    ABASIS      S 
                                         1400     1410     1200     1210     1080     1600     1650     1300     1700   
                                           T        V       H0       H01     AOSYM     SMH    MOLCAS    ERIS     OPER   

              3       5       14.77       500      610      700     1000     2100   
                                          VAR    BASINP    GEOM     BASIS     RHF  

 PROGRAMS   *        TOTAL      CCSD       INT   RESTART
 CPU TIMES  *         0.41      0.14      0.14      0.01
 REAL TIME  *         0.72 SEC
 DISK USED  *        49.44 MB
 **********************************************************************************************************************************
 Molecular orbitals read from record     2100.3  Type=RHF/CANONICAL (state 1.1)
 Occupation numbers read from record     2100.3  Type=RHF/RHF (state 1.1)
 Orbital energies read from record       2100.3  Type=RHF/CANONICAL (state 1.1)
 Redundancy group numbers read from rec  2100.3  Type=RHF/RHF (state 1.1)

 CCSD/6-31G energy=   -459.186351698704

            CCSD
   -459.18635170
 **********************************************************************************************************************************
 Molpro calculation terminated
