
 Primary working directories    : /scr/yuriaoto/job.022841/molpro.nUUN9wzcIA
 Secondary working directories  : /scr/yuriaoto/job.022841/molpro.nUUN9wzcIA
 Wavefunction directory         : /scr/yuriaoto/job.022841/
 Main file repository           : /scr/yuriaoto/job.022841/molpro.nUUN9wzcIA/

 id        : yuriaoto

 Nodes             nprocs
 t-rex.ufabc.int.br    1

 Using customized tuning parameters: mindgm=8; mindgv=16; mindgc=1; mindgr=1; noblas=0; minvec=7
 default implementation of scratch files=df  


 Variables initialized (933), CPU time= 0.00 sec
 ***,
 memory,40,m
 gprint,orbital,basis,civector
 gthresh,thrprint=0,printci=0.0
 file,3,wfu.dat,old
 
 {cisd,CC_NORM_MAX=10000.0
 thresh,printci=0.0,ENERGY=1.0E-10,COEFF=1.0E-12
 print,ref=1
 core,0
 wf,8,1,0;
 }
 
 Commands  initialized (760), CPU time= 0.01 sec, 617 directives.
 Default parameters read. Elapsed time= 0.04 sec

 Checking input...
 Passed
1


                                         ***  PROGRAM SYSTEM MOLPRO  ***
                                       Copyright, TTI GmbH Stuttgart, 2015
                                    Version 2019.2 linked Abr  7 2019 15:10:35


 **********************************************************************************************************************************
 LABEL *                                                                                 
  64 bit serial version                                                                  DATE: 23-Mar-20          TIME: 15:09:46  
 **********************************************************************************************************************************

 SHA1:             3a8a58c585c929645742fb5a1b7541a4ad1da699
 **********************************************************************************************************************************


 THRESHOLDS:

 ZERO    =  1.00D-12  ONEINT  =  1.00D-12  TWOINT  =  1.00D-11  PREFAC  =  1.00D-14  XXXXXX  =  1.00D-09  EORDER  =  1.00D-04
 ENERGY  =  0.00D+00  ETEST   =  0.00D+00  EDENS   =  0.00D+00  THRDEDEF=  1.00D-06  GRADIENT=  1.00D-02  STEP    =  1.00D-03
 ORBITAL =  1.00D-05  CIVEC   =  1.00D-05  COEFF   =  1.00D-04  PRINTCI =  0.00D+00  PUNCHCI =  9.90D+01  OPTGRAD =  3.00D-04
 OPTENERG=  1.00D-06  OPTSTEP =  3.00D-04  THRGRAD =  1.00D-10  COMPRESS=  1.00D-11  VARMIN  =  1.00D-07  VARMAX  =  1.00D-03
 THRDOUB =  0.00D+00  THRDIV  =  1.00D-05  THRRED  =  1.00D-07  THRPSP  =  1.00D+00  THRDC   =  1.00D-10  THRCS   =  1.00D-10
 THRNRM  =  1.00D-08  THREQ   =  0.00D+00  THRDE   =  1.00D+00  THRREF  =  1.00D-05  SPARFAC =  1.00D+00  THRDLP  =  1.00D-07
 THRDIA  =  1.00D-10  THRDLS  =  1.00D-07  THRGPS  =  0.00D+00  THRKEX  =  0.00D+00  THRDIS  =  2.00D-01  THRVAR  =  1.00D-10
 THRLOC  =  1.00D-06  THRGAP  =  1.00D-06  THRLOCT = -1.00D+00  THRGAPT = -1.00D+00  THRORB  =  1.00D-06  THRMLTP =  0.00D+00
 THRCPQCI=  1.00D-10  KEXTA   =  0.00D+00  THRCOARS=  0.00D+00  SYMTOL  =  1.00D-06  GRADTOL =  1.00D-06  THROVL  =  1.00D-08
 THRORTH =  1.00D-08  GRID    =  1.00D-06  GRIDMAX =  1.00D-03  DTMAX   =  0.00D+00  THROCCDE=  1.00D-01  THROCCDE=  1.00D-01
 THRPRINT=  0.00D+00


 Variable memory set to   40000000 words,  buffer space 



 Permanent file  3  wfu.dat  assigned.  Implementation=df    Size= 14.20 MB


 PROGRAM * RESTART 


 Reading variables from file 3

 _FNUC           =      0.00000000
 _BASIS          =    6-31G
 _NELEC          =      8.00000000
 _PROGRAM        =    RHF-SCF
 _DMZ            =      0.00000000
 _DMX_SCF        =      0.00000000
 _DMY_SCF        =      0.00000000
 _DMZ_SCF        =      0.00000000
 _HOMO           =      1.20000000
 _EHOMO          =     -0.29037378
 _LUMO           =      1.40000000
 _ELUMO          =     -0.12087980
 _ENERGY         =     -3.27889494
 _ENERGY_METHOD  =    RHF
 _ENERGY_BASIS   =    6-31G
 _ENUC           =      4.02080883
 _EPS1(1:2)      =     -0.36198816     0.85378758
 _EPS2(1:2)      =     -0.29037378     0.94262813
 _EPS3(1:2)      =     -0.29037378     0.94262813
 _EPS4(1:2)      =     -0.12087980     1.04889847
 _EPS5(1:2)      =     -0.29037378     0.94262813
 _EPS6(1:2)      =     -0.12087980     1.04889847
 _EPS7(1:2)      =     -0.12087980     1.04889847
 _EPS8(1:2)      =     -0.05683457     1.17869424
 _IPROC_MPP      =      0.00000000
 _IPROC_MPPX     =      0.00000000
 _ORBITAL        =   2100.30000000
 _STATUS         =      1.00000000
 _LASTORB        =    RHF
 _OUTPUT         =    /scr/yuriaoto/job.022840/RHF.xml
 _PGROUP         =    D2h 
 _TIME           =    15:09:44
 R               =      1.50000000

 Geometry written to block  1 of record 700


 **********************************************************************************************************************************
 DATASETS  * FILE   NREC   LENGTH (MB)   RECORD NAMES
              3       5       14.89       500      610      700     1000     2100   
                                          VAR    BASINP    GEOM     BASIS     RHF  

 PROGRAMS   *        TOTAL   RESTART
 CPU TIMES  *         0.12      0.02
 REAL TIME  *         0.15 SEC
 DISK USED  *        26.98 MB
 **********************************************************************************************************************************


 Recomputing integrals since basis changed


 Using spherical harmonics

 Library entry H      S 6-31G                selected for orbital group  1


 PROGRAM * SEWARD (Integral evaluation for generally contracted gaussian basis sets)     Author: Roland Lindh, 1990

 Geometry written to block  1 of record 700


 Point group  D2h 



 ATOMIC COORDINATES

 NR  ATOM    CHARGE       X              Y              Z

   1  H1      1.00    2.834589187    2.834589187    2.834589187
   2  H2      1.00   -2.834589187   -2.834589187    2.834589187
   3  H3      1.00    2.834589187   -2.834589187    2.834589187
   4  H4      1.00   -2.834589187    2.834589187    2.834589187
   5  H5      1.00    2.834589187    2.834589187   -2.834589187
   6  H6      1.00   -2.834589187   -2.834589187   -2.834589187
   7  H7      1.00    2.834589187   -2.834589187   -2.834589187
   8  H8      1.00   -2.834589187    2.834589187   -2.834589187


 BASIS DATA

   Nr Sym  Nuc  Type         Exponents   Contraction coefficients

    1.1 Ag    1  1s          18.731137     0.033495
              2  1s           2.825394     0.234727
              3  1s           0.640122     0.813757
              4  1s    
              5  1s    
              6  1s    
              7  1s    
              8  1s    
    2.1 Ag    1  1s           0.161278     1.000000
              2  1s    
              3  1s    
              4  1s    
              5  1s    
              6  1s    
              7  1s    
              8  1s    
    1.2 B3u   1  1s          18.731137     0.033495
              2 -1s           2.825394     0.234727
              3  1s           0.640122     0.813757
              4 -1s    
              5  1s    
              6 -1s    
              7  1s    
              8 -1s    
    2.2 B3u   1  1s           0.161278     1.000000
              2 -1s    
              3  1s    
              4 -1s    
              5  1s    
              6 -1s    
              7  1s    
              8 -1s    
    1.3 B2u   1  1s          18.731137     0.033495
              2 -1s           2.825394     0.234727
              3 -1s           0.640122     0.813757
              4  1s    
              5  1s    
              6 -1s    
              7 -1s    
              8  1s    
    2.3 B2u   1  1s           0.161278     1.000000
              2 -1s    
              3 -1s    
              4  1s    
              5  1s    
              6 -1s    
              7 -1s    
              8  1s    
    1.4 B1g   1  1s          18.731137     0.033495
              2  1s           2.825394     0.234727
              3 -1s           0.640122     0.813757
              4 -1s    
              5  1s    
              6  1s    
              7 -1s    
              8 -1s    
    2.4 B1g   1  1s           0.161278     1.000000
              2  1s    
              3 -1s    
              4 -1s    
              5  1s    
              6  1s    
              7 -1s    
              8 -1s    
    1.5 B1u   1  1s          18.731137     0.033495
              2  1s           2.825394     0.234727
              3  1s           0.640122     0.813757
              4  1s    
              5 -1s    
              6 -1s    
              7 -1s    
              8 -1s    
    2.5 B1u   1  1s           0.161278     1.000000
              2  1s    
              3  1s    
              4  1s    
              5 -1s    
              6 -1s    
              7 -1s    
              8 -1s    
    1.6 B2g   1  1s          18.731137     0.033495
              2 -1s           2.825394     0.234727
              3  1s           0.640122     0.813757
              4 -1s    
              5 -1s    
              6  1s    
              7 -1s    
              8  1s    
    2.6 B2g   1  1s           0.161278     1.000000
              2 -1s    
              3  1s    
              4 -1s    
              5 -1s    
              6  1s    
              7 -1s    
              8  1s    
    1.7 B3g   1  1s          18.731137     0.033495
              2 -1s           2.825394     0.234727
              3 -1s           0.640122     0.813757
              4  1s    
              5 -1s    
              6  1s    
              7  1s    
              8 -1s    
    2.7 B3g   1  1s           0.161278     1.000000
              2 -1s    
              3 -1s    
              4  1s    
              5 -1s    
              6  1s    
              7  1s    
              8 -1s    
    1.8 Au    1  1s          18.731137     0.033495
              2  1s           2.825394     0.234727
              3 -1s           0.640122     0.813757
              4 -1s    
              5 -1s    
              6 -1s    
              7  1s    
              8  1s    
    2.8 Au    1  1s           0.161278     1.000000
              2  1s    
              3 -1s    
              4 -1s    
              5 -1s    
              6 -1s    
              7  1s    
              8  1s    

 NUCLEAR CHARGE:                    8
 NUMBER OF PRIMITIVE AOS:          32
 NUMBER OF SYMMETRY AOS:           32
 NUMBER OF CONTRACTIONS:           16   (    2Ag  +    2B3u +    2B2u +    2B1g +    2B1u +    2B2g +    2B3g +    2Au  )
 NUMBER OF CORE ORBITALS:           0   (    0Ag  +    0B3u +    0B2u +    0B1g +    0B1u +    0B2g +    0B3g +    0Au  )
 NUMBER OF VALENCE ORBITALS:        8   (    1Ag  +    1B3u +    1B2u +    1B1g +    1B1u +    1B2g +    1B3g +    1Au  )


 NUCLEAR REPULSION ENERGY    4.02080883

 Eigenvalues of metric

         1 0.422E+00 0.182E+01
         2 0.366E+00 0.170E+01
         3 0.366E+00 0.170E+01
         4 0.310E+00 0.161E+01
         5 0.366E+00 0.170E+01
         6 0.310E+00 0.161E+01
         7 0.310E+00 0.161E+01
         8 0.258E+00 0.153E+01


 Contracted 2-electron integrals neglected if value below      1.0D-11
 AO integral compression algorithm  1   Integral accuracy      1.0D-11

     0.262 MB (compressed) written to integral file (100.0%)


 NUMBER OF SORTED TWO-ELECTRON INTEGRALS:       1476.     BUFFER LENGTH:  32768
 NUMBER OF SEGMENTS:   1  SEGMENT LENGTH:       1476      RECORD LENGTH: 524288

 Memory used in sort:       0.56 MW

 SORT1 READ        8192. AND WROTE        1476. INTEGRALS IN      1 RECORDS. CPU TIME:     0.00 SEC, REAL TIME:     0.01 SEC
 SORT2 READ        1476. AND WROTE        1476. INTEGRALS IN      1 RECORDS. CPU TIME:     0.00 SEC, REAL TIME:     0.01 SEC

 FILE SIZES:   FILE 1:    30.3 MBYTE,  FILE 4:     4.2 MBYTE,   TOTAL:     34.6 MBYTE

 OPERATOR DM      FOR CENTER  0  COORDINATES:    0.000000    0.000000    0.000000


 **********************************************************************************************************************************
 DATASETS  * FILE   NREC   LENGTH (MB)   RECORD NAMES
              1      19       30.08       500      700      610      900      950      970     1000      129      960     1100   
                                          VAR     GEOM    BASINP   SYMINP    ZMAT    AOBASIS   BASIS     P2S    ABASIS      S 
                                         1400     1410     1200     1210     1080     1600     1650     1300     1700   
                                           T        V       H0       H01     AOSYM     SMH    MOLCAS    ERIS     OPER   

              3       5       14.89       500      610      700     1000     2100   
                                          VAR    BASINP    GEOM     BASIS     RHF  

 PROGRAMS   *        TOTAL       INT   RESTART
 CPU TIMES  *         0.26      0.14      0.02
 REAL TIME  *         0.43 SEC
 DISK USED  *        49.79 MB
 **********************************************************************************************************************************


 PROGRAM * CISD (Closed-shell CI(SD))     Authors: C. Hampel, H.-J. Werner, 1991, M. Deegan, P.J. Knowles, 1992


 Input parameters for THRESH:

 ENERGY   =    1.00D-10
 COEFF    =    1.00D-12
 PRINTCI  =    0.000000
 THRPRINT =    0.000000

 Convergence thresholds:  THRVAR = 1.00D-24  THRDEN = 1.00D-10

 Number of closed-shell orbitals:   4 (   1   1   1   0   1   0   0   0 )
 Number of external orbitals:      12 (   1   1   1   2   1   2   2   2 )

 Molecular orbitals read from record     2100.3  Type=RHF/CANONICAL (state 1.1)

 Number of N-1 electron functions:               4
 Number of N-2 electron functions:              10
 Number of singly external CSFs:                 4
 Number of doubly external CSFs:               172
 Total number of CSFs:                         177

 Length of J-op  integral file:               0.00 MB
 Length of K-op  integral file:               0.03 MB

 Integral transformation finished. Total CPU:   0.00 sec, npass=  1  Memory used:   0.07 MW

 Reference energy:                     -3.27889494

 MP2 singlet pair energy:              -0.30420838
 MP2 triplet pair energy:              -0.01836691
 MP2 correlation energy:               -0.32257529
 MP2 total energy:                     -3.60147024

 SCS-MP2 correlation energy:           -0.37647836   (PS=  1.200000  PT=  0.333333)
 SCS-MP2 total energy:                 -3.65537330

 ITER.      SQ.NORM     CORR.ENERGY   TOTAL ENERGY   ENERGY CHANGE        DEN1      VAR(S)    VAR(P)  DIIS     TIME  TIME/IT
   1      1.73894042    -0.38448979    -3.66338473    -0.06191449     0.03610802  0.81D-02  0.13D+00  1  1     0.01     0.00
   2      1.81568113    -0.35510245    -3.63399739     0.02938734    -0.01575784  0.28D-03  0.22D-01  2  2     0.01     0.00
   3      2.04720513    -0.36318570    -3.64208064    -0.00808325    -0.02320328  0.46D-04  0.16D-01  3  3     0.01     0.00
   4      2.70562356    -0.36576274    -3.64465769    -0.00257704    -0.04286792  0.11D-04  0.14D-02  4  4     0.02     0.00
   5      2.92825761    -0.37355269    -3.65244764    -0.00778995    -0.01462064  0.29D-05  0.95D-04  5  5     0.02     0.00
   6      2.84798972    -0.37346752    -3.65236246     0.00008518     0.00571570  0.47D-06  0.14D-04  6  6     0.02     0.00
   7      2.79608013    -0.37355154    -3.65244648    -0.00008402     0.00376866  0.55D-07  0.11D-05  6  1     0.02     0.00
   8      2.79448713    -0.37356722    -3.65246216    -0.00001569     0.00021971  0.89D-09  0.51D-07  6  3     0.02     0.00
   9      2.79803227    -0.37356721    -3.65246215     0.00000001    -0.00024307  0.90D-09  0.98D-08  6  2     0.02     0.00
  10      2.79955788    -0.37356737    -3.65246231    -0.00000016    -0.00010783  0.59D-10  0.15D-08  6  4     0.02     0.00
  11      2.79959124    -0.37356739    -3.65246233    -0.00000002    -0.00000340  0.73D-14  0.16D-10  6  5     0.02     0.00
  12      2.79959016    -0.37356739    -3.65246233    -0.00000000    -0.00000011  0.11D-12  0.36D-12  6  6     0.02     0.00
  13      2.79959143    -0.37356739    -3.65246233     0.00000000    -0.00000014  0.35D-15  0.54D-13  6  1     0.02     0.00
  14      2.79959054    -0.37356739    -3.65246233     0.00000000     0.00000006  0.51D-16  0.64D-14  6  5     0.03     0.00
  15      2.79959073    -0.37356739    -3.65246233     0.00000000    -0.00000002  0.91D-17  0.36D-15  6  2     0.03     0.00
  16      2.79959081    -0.37356739    -3.65246233    -0.00000000    -0.00000000  0.25D-17  0.47D-16  6  3     0.03     0.00
  17      2.79959083    -0.37356739    -3.65246233     0.00000000    -0.00000000  0.15D-18  0.65D-17  6  4     0.03     0.00
  18      2.79959084    -0.37356739    -3.65246233     0.00000000    -0.00000000  0.29D-19  0.78D-18  6  6     0.03     0.00
  19      2.79959084    -0.37356739    -3.65246233    -0.00000000    -0.00000000  0.10D-20  0.99D-19  6  1     0.03     0.00
  20      2.79959084    -0.37356739    -3.65246233     0.00000000     0.00000000  0.24D-24  0.25D-19  6  5     0.03     0.00
  21      2.79959084    -0.37356739    -3.65246233     0.00000000     0.00000000  0.38D-22  0.24D-20  6  2     0.03     0.00
  22      2.79959084    -0.37356739    -3.65246233     0.00000000     0.00000000  0.27D-23  0.14D-21  6  3     0.03     0.00
  23      2.79959084    -0.37356739    -3.65246233     0.00000000    -0.00000000  0.73D-24  0.89D-23  6  4     0.04     0.00
  24      2.79959084    -0.37356739    -3.65246233     0.00000000    -0.00000000  0.14D-27  0.27D-24  6  1     0.04     0.00


 ! DIPOLE MOMENTS:                      0.00000000     0.00000000     0.00000000



 Norm of t1 vector:      0.10933867      S-energy:    -0.00159522      T1 diagnostic:  0.02733467

 Singles amplitudes (print threshold =  0.000E+00):

         I         SYM. A    A   T(IA)

         1         1         1      0.03498540
         2         2         1      0.03980575
         3         3         1      0.03980575
         4         5         1      0.03980575

 Doubles amplitudes (print threshold =  0.000E+00):

         I         J         SYM. A    SYM. B    A         B      T(IJ, AB)

         1         1         1         1         1         1     -0.00332060
         1         1         2         2         1         1     -0.00316777
         1         1         3         3         1         1     -0.00316777
         1         1         4         4         1         1     -0.02572419
         1         1         4         4         1         2     -0.00602133
         1         1         4         4         2         1     -0.00602133
         1         1         4         4         2         2     -0.00299443
         1         1         5         5         1         1     -0.00316777
         1         1         6         6         1         1     -0.02572419
         1         1         6         6         1         2     -0.00602133
         1         1         6         6         2         1     -0.00602133
         1         1         6         6         2         2     -0.00299443
         1         1         7         7         1         1     -0.02572419
         1         1         7         7         1         2     -0.00602133
         1         1         7         7         2         1     -0.00602133
         1         1         7         7         2         2     -0.00299443
         1         1         8         8         1         1     -0.24522763
         1         1         8         8         1         2     -0.02056688
         1         1         8         8         2         1     -0.02056688
         1         1         8         8         2         2     -0.00354754
         2         2         1         1         1         1     -0.00342250
         2         2         2         2         1         1     -0.00245938
         2         2         3         3         1         1     -0.00254305
         2         2         4         4         1         1     -0.02005025
         2         2         4         4         1         2     -0.00556132
         2         2         4         4         2         1     -0.00556132
         2         2         4         4         2         2     -0.00284247
         2         2         5         5         1         1     -0.00254305
         2         2         6         6         1         1     -0.02005025
         2         2         6         6         1         2     -0.00556132
         2         2         6         6         2         1     -0.00556132
         2         2         6         6         2         2     -0.00284247
         2         2         7         7         1         1     -0.40037108
         2         2         7         7         1         2     -0.03288339
         2         2         7         7         2         1     -0.03288339
         2         2         7         7         2         2     -0.00463996
         2         2         8         8         1         1     -0.02991596
         2         2         8         8         1         2     -0.00504371
         2         2         8         8         2         1     -0.00504371
         2         2         8         8         2         2     -0.00223394
         3         3         1         1         1         1     -0.00342250
         3         3         2         2         1         1     -0.00254305
         3         3         3         3         1         1     -0.00245938
         3         3         4         4         1         1     -0.02005025
         3         3         4         4         1         2     -0.00556132
         3         3         4         4         2         1     -0.00556132
         3         3         4         4         2         2     -0.00284247
         3         3         5         5         1         1     -0.00254305
         3         3         6         6         1         1     -0.40037108
         3         3         6         6         1         2     -0.03288339
         3         3         6         6         2         1     -0.03288339
         3         3         6         6         2         2     -0.00463996
         3         3         7         7         1         1     -0.02005025
         3         3         7         7         1         2     -0.00556132
         3         3         7         7         2         1     -0.00556132
         3         3         7         7         2         2     -0.00284247
         3         3         8         8         1         1     -0.02991596
         3         3         8         8         1         2     -0.00504371
         3         3         8         8         2         1     -0.00504371
         3         3         8         8         2         2     -0.00223394
         4         4         1         1         1         1     -0.00342250
         4         4         2         2         1         1     -0.00254305
         4         4         3         3         1         1     -0.00254305
         4         4         4         4         1         1     -0.40037108
         4         4         4         4         1         2     -0.03288339
         4         4         4         4         2         1     -0.03288339
         4         4         4         4         2         2     -0.00463996
         4         4         5         5         1         1     -0.00245938
         4         4         6         6         1         1     -0.02005025
         4         4         6         6         1         2     -0.00556132
         4         4         6         6         2         1     -0.00556132
         4         4         6         6         2         2     -0.00284247
         4         4         7         7         1         1     -0.02005025
         4         4         7         7         1         2     -0.00556132
         4         4         7         7         2         1     -0.00556132
         4         4         7         7         2         2     -0.00284247
         4         4         8         8         1         1     -0.02991596
         4         4         8         8         1         2     -0.00504371
         4         4         8         8         2         1     -0.00504371
         4         4         8         8         2         2     -0.00223394
         2         1         1         2         1         1     -0.00312408
         2         1         2         1         1         1     -0.00341571
         2         1         3         4         1         1     -0.00821590
         2         1         3         4         1         2     -0.00312429
         2         1         4         3         1         1     -0.00666241
         2         1         4         3         2         1     -0.00309672
         2         1         5         6         1         1     -0.00821590
         2         1         5         6         1         2     -0.00312429
         2         1         6         5         1         1     -0.00666241
         2         1         6         5         2         1     -0.00309672
         2         1         7         8         1         1     -0.12642514
         2         1         7         8         1         2     -0.01199967
         2         1         7         8         2         1     -0.01367582
         2         1         7         8         2         2     -0.00318436
         2         1         8         7         1         1     -0.22757881
         2         1         8         7         1         2     -0.01994299
         2         1         8         7         2         1     -0.01930616
         2         1         8         7         2         2     -0.00375976
         3         1         1         3         1         1     -0.00312408
         3         1         2         4         1         1     -0.00821590
         3         1         2         4         1         2     -0.00312429
         3         1         3         1         1         1     -0.00341571
         3         1         4         2         1         1     -0.00666241
         3         1         4         2         2         1     -0.00309672
         3         1         5         7         1         1     -0.00821590
         3         1         5         7         1         2     -0.00312429
         3         1         6         8         1         1     -0.12642514
         3         1         6         8         1         2     -0.01199967
         3         1         6         8         2         1     -0.01367582
         3         1         6         8         2         2     -0.00318436
         3         1         7         5         1         1     -0.00666241
         3         1         7         5         2         1     -0.00309672
         3         1         8         6         1         1     -0.22757881
         3         1         8         6         1         2     -0.01994299
         3         1         8         6         2         1     -0.01930616
         3         1         8         6         2         2     -0.00375976
         3         2         1         4         1         1     -0.00916297
         3         2         1         4         1         2     -0.00326094
         3         2         2         3         1         1     -0.00256441
         3         2         3         2         1         1     -0.00269559
         3         2         4         1         1         1     -0.00916297
         3         2         4         1         2         1     -0.00326094
         3         2         5         8         1         1     -0.00712463
         3         2         5         8         1         2     -0.00255329
         3         2         6         7         1         1     -0.15053852
         3         2         6         7         1         2     -0.01543003
         3         2         6         7         2         1     -0.01543003
         3         2         6         7         2         2     -0.00352244
         3         2         7         6         1         1     -0.28685762
         3         2         7         6         1         2     -0.02416247
         3         2         7         6         2         1     -0.02416247
         3         2         7         6         2         2     -0.00421645
         3         2         8         5         1         1     -0.00712463
         3         2         8         5         2         1     -0.00255329
         4         1         1         5         1         1     -0.00312408
         4         1         2         6         1         1     -0.00821590
         4         1         2         6         1         2     -0.00312429
         4         1         3         7         1         1     -0.00821590
         4         1         3         7         1         2     -0.00312429
         4         1         4         8         1         1     -0.12642514
         4         1         4         8         1         2     -0.01199967
         4         1         4         8         2         1     -0.01367582
         4         1         4         8         2         2     -0.00318436
         4         1         5         1         1         1     -0.00341571
         4         1         6         2         1         1     -0.00666241
         4         1         6         2         2         1     -0.00309672
         4         1         7         3         1         1     -0.00666241
         4         1         7         3         2         1     -0.00309672
         4         1         8         4         1         1     -0.22757881
         4         1         8         4         1         2     -0.01994299
         4         1         8         4         2         1     -0.01930616
         4         1         8         4         2         2     -0.00375976
         4         2         1         6         1         1     -0.00916297
         4         2         1         6         1         2     -0.00326094
         4         2         2         5         1         1     -0.00256441
         4         2         3         8         1         1     -0.00712463
         4         2         3         8         1         2     -0.00255329
         4         2         4         7         1         1     -0.15053852
         4         2         4         7         1         2     -0.01543003
         4         2         4         7         2         1     -0.01543003
         4         2         4         7         2         2     -0.00352244
         4         2         5         2         1         1     -0.00269559
         4         2         6         1         1         1     -0.00916297
         4         2         6         1         2         1     -0.00326094
         4         2         7         4         1         1     -0.28685762
         4         2         7         4         1         2     -0.02416247
         4         2         7         4         2         1     -0.02416247
         4         2         7         4         2         2     -0.00421645
         4         2         8         3         1         1     -0.00712463
         4         2         8         3         2         1     -0.00255329
         4         3         1         7         1         1     -0.00916297
         4         3         1         7         1         2     -0.00326094
         4         3         2         8         1         1     -0.00712463
         4         3         2         8         1         2     -0.00255329
         4         3         3         5         1         1     -0.00256441
         4         3         4         6         1         1     -0.15053852
         4         3         4         6         1         2     -0.01543003
         4         3         4         6         2         1     -0.01543003
         4         3         4         6         2         2     -0.00352244
         4         3         5         3         1         1     -0.00269559
         4         3         6         4         1         1     -0.28685762
         4         3         6         4         1         2     -0.02416247
         4         3         6         4         2         1     -0.02416247
         4         3         6         4         2         2     -0.00421645
         4         3         7         1         1         1     -0.00916297
         4         3         7         1         2         1     -0.00326094
         4         3         8         2         1         1     -0.00712463
         4         3         8         2         2         1     -0.00255329


 RESULTS
 =======

  Reference energy                     -3.278894941696
  CISD singlet pair energy             -0.323646035087
  CISD triplet pair energy             -0.048326125883
  CISD correlation energy              -0.373567385881

 !CISD total energy                    -3.652462327577

 Timing summary (sec):

 STEP                 CPU(USER)    SYS     CPU(TOT)    WALL
 CCSD iterations         0.04      0.01      0.05      0.03

 Program statistics:

 Available memory in ccsd:                39999136
 Min. memory needed in ccsd:                  1533
 Max. memory used in ccsd:                    1601
 Max. memory used in cckext:                 34182 (24 integral passes)



 **********************************************************************************************************************************
 DATASETS  * FILE   NREC   LENGTH (MB)   RECORD NAMES
              1      20       30.09       500      700      610      900      950      970     1000      129      960     1100   
                                          VAR     GEOM    BASINP   SYMINP    ZMAT    AOBASIS   BASIS     P2S    ABASIS      S 
                                         1400     1410     1200     1210     1080     1600     1650     1300     1700     1380   
                                           T        V       H0       H01     AOSYM     SMH    MOLCAS    ERIS     OPER     JKOP   

              3       5       14.89       500      610      700     1000     2100   
                                          VAR    BASINP    GEOM     BASIS     RHF  

 PROGRAMS   *        TOTAL      CISD       INT   RESTART
 CPU TIMES  *         0.33      0.07      0.14      0.02
 REAL TIME  *         0.50 SEC
 DISK USED  *        49.79 MB
 **********************************************************************************************************************************
 Molecular orbitals read from record     2100.3  Type=RHF/CANONICAL (state 1.1)
 Occupation numbers read from record     2100.3  Type=RHF/RHF (state 1.1)
 Orbital energies read from record       2100.3  Type=RHF/CANONICAL (state 1.1)
 Redundancy group numbers read from rec  2100.3  Type=RHF/RHF (state 1.1)

 CISD/6-31G energy=     -3.652462327577

            CISD
     -3.65246233
 **********************************************************************************************************************************
 Molpro calculation terminated
