
 Primary working directories    : /scr/yuriaoto/job.023693/molpro.LQL830DRBY
 Secondary working directories  : /scr/yuriaoto/job.023693/molpro.LQL830DRBY
 Wavefunction directory         : /scr/yuriaoto/job.023693/
 Main file repository           : /scr/yuriaoto/job.023693/molpro.LQL830DRBY/

 id        : yuriaoto

 Nodes             nprocs
 t-rex.ufabc.int.br    1

 Using customized tuning parameters: mindgm=8; mindgv=16; mindgc=1; mindgr=1; noblas=0; minvec=7
 default implementation of scratch files=df  


 Variables initialized (933), CPU time= 0.00 sec
 ***,
 memory,40,m
 gprint,orbital,basis,civector
 gthresh,printci=0.0,thrprint=0
 file,3,wfu.dat,old
 
 {bccd,SAVEORB=2150.2,print,CC_NORM_MAX=10.0
 thresh,printci=0.0,ENERGY=1.0E-10,COEFF=1.0E-12
 print,ref=1
 core,0
 wf,6,1,0;
 }
 
 {put,xml,orbitals.xml; orbital,2150.2; nosort; novariables}
 
 Commands  initialized (760), CPU time= 0.01 sec, 617 directives.
 Default parameters read. Elapsed time= 0.03 sec

 Checking input...
 Passed
1


                                         ***  PROGRAM SYSTEM MOLPRO  ***
                                       Copyright, TTI GmbH Stuttgart, 2015
                                    Version 2019.2 linked Abr  7 2019 15:10:35


 **********************************************************************************************************************************
 LABEL *                                                                                 
  64 bit serial version                                                                  DATE: 05-Jun-20          TIME: 23:33:07  
 **********************************************************************************************************************************

 SHA1:             3a8a58c585c929645742fb5a1b7541a4ad1da699
 **********************************************************************************************************************************


 THRESHOLDS:

 ZERO    =  1.00D-12  ONEINT  =  1.00D-12  TWOINT  =  1.00D-11  PREFAC  =  1.00D-14  XXXXXX  =  1.00D-09  EORDER  =  1.00D-04
 ENERGY  =  0.00D+00  ETEST   =  0.00D+00  EDENS   =  0.00D+00  THRDEDEF=  1.00D-06  GRADIENT=  1.00D-02  STEP    =  1.00D-03
 ORBITAL =  1.00D-05  CIVEC   =  1.00D-05  COEFF   =  1.00D-04  PRINTCI =  0.00D+00  PUNCHCI =  9.90D+01  OPTGRAD =  3.00D-04
 OPTENERG=  1.00D-06  OPTSTEP =  3.00D-04  THRGRAD =  1.00D-10  COMPRESS=  1.00D-11  VARMIN  =  1.00D-07  VARMAX  =  1.00D-03
 THRDOUB =  0.00D+00  THRDIV  =  1.00D-05  THRRED  =  1.00D-07  THRPSP  =  1.00D+00  THRDC   =  1.00D-10  THRCS   =  1.00D-10
 THRNRM  =  1.00D-08  THREQ   =  0.00D+00  THRDE   =  1.00D+00  THRREF  =  1.00D-05  SPARFAC =  1.00D+00  THRDLP  =  1.00D-07
 THRDIA  =  1.00D-10  THRDLS  =  1.00D-07  THRGPS  =  0.00D+00  THRKEX  =  0.00D+00  THRDIS  =  2.00D-01  THRVAR  =  1.00D-10
 THRLOC  =  1.00D-06  THRGAP  =  1.00D-06  THRLOCT = -1.00D+00  THRGAPT = -1.00D+00  THRORB  =  1.00D-06  THRMLTP =  0.00D+00
 THRCPQCI=  1.00D-10  KEXTA   =  0.00D+00  THRCOARS=  0.00D+00  SYMTOL  =  1.00D-06  GRADTOL =  1.00D-06  THROVL  =  1.00D-08
 THRORTH =  1.00D-08  GRID    =  1.00D-06  GRIDMAX =  1.00D-03  DTMAX   =  0.00D+00  THROCCDE=  1.00D-01  THROCCDE=  1.00D-01
 THRPRINT=  0.00D+00


 Variable memory set to   40000000 words,  buffer space 



 Permanent file  3  wfu.dat  assigned.  Implementation=df    Size= 14.14 MB


 PROGRAM * RESTART 


 Reading variables from file 3

 _FNUC           =      0.00000000
 _BASIS          =    CC-PVQZ
 _NELEC          =      6.00000000
 _PROGRAM        =    RHF-SCF
 _DMX_SCF        =      0.00000000
 _DMY_SCF        =      0.00000000
 _DMZ_SCF        =      0.00000000
 _HOMO           =      2.10000000
 _EHOMO          =     -0.18246531
 _LUMO           =      2.50000000
 _ELUMO          =      0.00555584
 _ENERGY         =    -14.87127592
 _ENERGY_METHOD  =    RHF
 _ENERGY_BASIS   =    cc-pVQZ
 _ENUC           =      1.80000000
 _EPS1(1:17)     =     -2.45275542    -0.18246531     0.03118128     0.07675564     0.10329663     0.17513734
                        0.25175330     0.28508831     0.35792933     0.45872422     0.56018831     0.59918038
                        0.62755650     1.11239813     1.15386160     1.19142153     1.32188143
 _EPS2(1:13)     =      0.02433195     0.09353741     0.21068870     0.32226550     0.42191244     0.54628859
                        0.59819740     1.10083269     1.15221110     1.20763857     1.21042280     1.40783887
                        1.71444622
 _EPS3(1:13)     =      0.02433195     0.09353741     0.21068870     0.32226550     0.42191244     0.54628859
                        0.59819740     1.10083269     1.15221110     1.20763857     1.21042280     1.40783887
                        1.71444622
 _EPS4(1:7)      =      0.17513734     0.45872422     0.56018831     1.15386160     1.19142153     1.33151704
                        1.47724476
 _EPS5(1:16)     =     -2.45238917     0.00555584     0.05165406     0.11717968     0.16988016     0.22773801
                        0.28045093     0.41754488     0.49749500     0.57413233     0.61243569     0.63567405
                        0.88007748     1.26225432     1.33801999     1.36959713
 _EPS6(1:13)     =      0.04825428     0.13557655     0.27933523     0.33487951     0.49486051     0.59572254
                        0.76334313     1.19733327     1.25823163     1.41087078     1.41960646     1.59670947
                        2.17132043
 _EPS7(1:13)     =      0.04825428     0.13557655     0.27933523     0.33487951     0.49486051     0.59572254
                        0.76334313     1.19733327     1.25823163     1.41087078     1.41960646     1.59670947
                        2.17132043
 _EPS8(1:7)      =      0.22773801     0.57413233     0.63567405     1.26225432     1.33801999     1.49625433
                        1.70967926
 _IPROC_MPP      =      0.00000000
 _IPROC_MPPX     =      0.00000000
 _ORBITAL        =   2100.30000000
 _STATUS         =      1.00000000
 _DATE           =    10-Feb-20
 _LASTORB        =    RHF
 _OUTPUT         =    /scr/yuriaoto/job.022758/RHF.xml
 _PGROUP         =    D2h 
 _TIME           =    10:56:03
 R               =      5.00000000

 Geometry written to block  1 of record 700


 **********************************************************************************************************************************
 DATASETS  * FILE   NREC   LENGTH (MB)   RECORD NAMES
              3       5       14.82       500      610      700     1000     2100   
                                          VAR    BASINP    GEOM     BASIS     RHF  

 PROGRAMS   *        TOTAL   RESTART
 CPU TIMES  *         0.10      0.02
 REAL TIME  *         0.11 SEC
 DISK USED  *        26.89 MB
 **********************************************************************************************************************************


 Recomputing integrals since basis changed


 Using spherical harmonics

 Library entry LI     S cc-pVQZ              selected for orbital group  1
 Library entry LI     P cc-pVQZ              selected for orbital group  1
 Library entry LI     D cc-pVQZ              selected for orbital group  1
 Library entry LI     F cc-pVQZ              selected for orbital group  1
 Library entry LI     G cc-pVQZ              selected for orbital group  1


 PROGRAM * SEWARD (Integral evaluation for generally contracted gaussian basis sets)     Author: Roland Lindh, 1990

 Geometry written to block  1 of record 700

 Orientation using atomic masses  
 Molecule type: Linear
 User-specified symmetry elements: X,Y,Z
 Symmetry elements: X,Y,Z
 Rotational constants:      20.8009354     20.8009354      0.0000000 GHz  (calculated with average atomic masses)

 Point group  D2h 



 ATOMIC COORDINATES

 NR  ATOM    CHARGE       X              Y              Z

   1  LI1     3.00    0.000000000    0.000000000   -2.500000000
   2  LI2     3.00    0.000000000    0.000000000    2.500000000

 Bond lengths in Bohr (Angstrom)

 1-2  5.000000000
     ( 2.645886055)


 BASIS DATA

   Nr Sym  Nuc  Type         Exponents   Contraction coefficients

    1.1 Ag    1  1s        6601.000000     0.000117   -0.000018    0.000000    0.000000    0.000000
    2.1 Ag    2  1s         989.700000     0.000911   -0.000142    0.000000    0.000000    0.000000
    3.1 Ag                  225.700000     0.004728   -0.000741    0.000000    0.000000    0.000000
    4.1 Ag                   64.290000     0.019197   -0.003020    0.000000    0.000000    0.000000
    5.1 Ag                   21.180000     0.063047   -0.010123    0.000000    0.000000    0.000000
                              7.724000     0.163208   -0.027094    0.000000    0.000000    0.000000
                              3.003000     0.314827   -0.057359    0.000000    0.000000    0.000000
                              1.212000     0.393936   -0.093895    0.000000    0.000000    0.000000
                              0.493000     0.196918   -0.121091    0.000000    0.000000    0.000000
                              0.095150     0.009997    0.276608    1.000000    0.000000    0.000000
                              0.047910    -0.005402    0.549548    0.000000    1.000000    0.000000
                              0.022200     0.001704    0.277385    0.000000    0.000000    1.000000
    6.1 Ag    1  2pz          6.250000     0.003388    0.000000    0.000000    0.000000
    7.1 Ag    2 -2pz          1.370000     0.019316    0.000000    0.000000    0.000000
    8.1 Ag                    0.367200     0.079104    0.000000    0.000000    0.000000
    9.1 Ag                    0.119200     0.274095    1.000000    0.000000    0.000000
                              0.044740     0.519488    0.000000    1.000000    0.000000
                              0.017950     0.284423    0.000000    0.000000    1.000000
   10.1 Ag    1  3d0          0.335200     1.000000
              2  3d0   
   11.1 Ag    1  3d2+         0.335200     1.000000
              2  3d2+  
   12.1 Ag    1  3d0          0.148200     1.000000
              2  3d0   
   13.1 Ag    1  3d2+         0.148200     1.000000
              2  3d2+  
   14.1 Ag    1  3d0          0.065600     1.000000
              2  3d0   
   15.1 Ag    1  3d2+         0.065600     1.000000
              2  3d2+  
   16.1 Ag    1  4f0          0.228000     1.000000
              2 -4f0   
   17.1 Ag    1  4f2+         0.228000     1.000000
              2 -4f2+  
   18.1 Ag    1  4f0          0.113500     1.000000
              2 -4f0   
   19.1 Ag    1  4f2+         0.113500     1.000000
              2 -4f2+  
   20.1 Ag    1  5g0          0.231900     1.000000
              2  5g0   
   21.1 Ag    1  5g4+         0.231900     1.000000
              2  5g4+  
   22.1 Ag    1  5g2+         0.231900     1.000000
              2  5g2+  
    1.2 B3u   1  2px          6.250000     0.003388    0.000000    0.000000    0.000000
    2.2 B3u   2  2px          1.370000     0.019316    0.000000    0.000000    0.000000
    3.2 B3u                   0.367200     0.079104    0.000000    0.000000    0.000000
    4.2 B3u                   0.119200     0.274095    1.000000    0.000000    0.000000
                              0.044740     0.519488    0.000000    1.000000    0.000000
                              0.017950     0.284423    0.000000    0.000000    1.000000
    5.2 B3u   1  3d1+         0.335200     1.000000
              2 -3d1+  
    6.2 B3u   1  3d1+         0.148200     1.000000
              2 -3d1+  
    7.2 B3u   1  3d1+         0.065600     1.000000
              2 -3d1+  
    8.2 B3u   1  4f1+         0.228000     1.000000
              2  4f1+  
    9.2 B3u   1  4f3+         0.228000     1.000000
              2  4f3+  
   10.2 B3u   1  4f1+         0.113500     1.000000
              2  4f1+  
   11.2 B3u   1  4f3+         0.113500     1.000000
              2  4f3+  
   12.2 B3u   1  5g1+         0.231900     1.000000
              2 -5g1+  
   13.2 B3u   1  5g3+         0.231900     1.000000
              2 -5g3+  
    1.3 B2u   1  2py          6.250000     0.003388    0.000000    0.000000    0.000000
    2.3 B2u   2  2py          1.370000     0.019316    0.000000    0.000000    0.000000
    3.3 B2u                   0.367200     0.079104    0.000000    0.000000    0.000000
    4.3 B2u                   0.119200     0.274095    1.000000    0.000000    0.000000
                              0.044740     0.519488    0.000000    1.000000    0.000000
                              0.017950     0.284423    0.000000    0.000000    1.000000
    5.3 B2u   1  3d1-         0.335200     1.000000
              2 -3d1-  
    6.3 B2u   1  3d1-         0.148200     1.000000
              2 -3d1-  
    7.3 B2u   1  3d1-         0.065600     1.000000
              2 -3d1-  
    8.3 B2u   1  4f1-         0.228000     1.000000
              2  4f1-  
    9.3 B2u   1  4f3-         0.228000     1.000000
              2  4f3-  
   10.3 B2u   1  4f1-         0.113500     1.000000
              2  4f1-  
   11.3 B2u   1  4f3-         0.113500     1.000000
              2  4f3-  
   12.3 B2u   1  5g1-         0.231900     1.000000
              2 -5g1-  
   13.3 B2u   1  5g3-         0.231900     1.000000
              2 -5g3-  
    1.4 B1g   1  3d2-         0.335200     1.000000
              2  3d2-  
    2.4 B1g   1  3d2-         0.148200     1.000000
              2  3d2-  
    3.4 B1g   1  3d2-         0.065600     1.000000
              2  3d2-  
    4.4 B1g   1  4f2-         0.228000     1.000000
              2 -4f2-  
    5.4 B1g   1  4f2-         0.113500     1.000000
              2 -4f2-  
    6.4 B1g   1  5g2-         0.231900     1.000000
              2  5g2-  
    7.4 B1g   1  5g4-         0.231900     1.000000
              2  5g4-  
    1.5 B1u   1  1s        6601.000000     0.000117   -0.000018    0.000000    0.000000    0.000000
    2.5 B1u   2 -1s         989.700000     0.000911   -0.000142    0.000000    0.000000    0.000000
    3.5 B1u                 225.700000     0.004728   -0.000741    0.000000    0.000000    0.000000
    4.5 B1u                  64.290000     0.019197   -0.003020    0.000000    0.000000    0.000000
    5.5 B1u                  21.180000     0.063047   -0.010123    0.000000    0.000000    0.000000
                              7.724000     0.163208   -0.027094    0.000000    0.000000    0.000000
                              3.003000     0.314827   -0.057359    0.000000    0.000000    0.000000
                              1.212000     0.393936   -0.093895    0.000000    0.000000    0.000000
                              0.493000     0.196918   -0.121091    0.000000    0.000000    0.000000
                              0.095150     0.009997    0.276608    1.000000    0.000000    0.000000
                              0.047910    -0.005402    0.549548    0.000000    1.000000    0.000000
                              0.022200     0.001704    0.277385    0.000000    0.000000    1.000000
    6.5 B1u   1  2pz          6.250000     0.003388    0.000000    0.000000    0.000000
    7.5 B1u   2  2pz          1.370000     0.019316    0.000000    0.000000    0.000000
    8.5 B1u                   0.367200     0.079104    0.000000    0.000000    0.000000
    9.5 B1u                   0.119200     0.274095    1.000000    0.000000    0.000000
                              0.044740     0.519488    0.000000    1.000000    0.000000
                              0.017950     0.284423    0.000000    0.000000    1.000000
   10.5 B1u   1  3d0          0.335200     1.000000
              2 -3d0   
   11.5 B1u   1  3d2+         0.335200     1.000000
              2 -3d2+  
   12.5 B1u   1  3d0          0.148200     1.000000
              2 -3d0   
   13.5 B1u   1  3d2+         0.148200     1.000000
              2 -3d2+  
   14.5 B1u   1  3d0          0.065600     1.000000
              2 -3d0   
   15.5 B1u   1  3d2+         0.065600     1.000000
              2 -3d2+  
   16.5 B1u   1  4f0          0.228000     1.000000
              2  4f0   
   17.5 B1u   1  4f2+         0.228000     1.000000
              2  4f2+  
   18.5 B1u   1  4f0          0.113500     1.000000
              2  4f0   
   19.5 B1u   1  4f2+         0.113500     1.000000
              2  4f2+  
   20.5 B1u   1  5g0          0.231900     1.000000
              2 -5g0   
   21.5 B1u   1  5g4+         0.231900     1.000000
              2 -5g4+  
   22.5 B1u   1  5g2+         0.231900     1.000000
              2 -5g2+  
    1.6 B2g   1  2px          6.250000     0.003388    0.000000    0.000000    0.000000
    2.6 B2g   2 -2px          1.370000     0.019316    0.000000    0.000000    0.000000
    3.6 B2g                   0.367200     0.079104    0.000000    0.000000    0.000000
    4.6 B2g                   0.119200     0.274095    1.000000    0.000000    0.000000
                              0.044740     0.519488    0.000000    1.000000    0.000000
                              0.017950     0.284423    0.000000    0.000000    1.000000
    5.6 B2g   1  3d1+         0.335200     1.000000
              2  3d1+  
    6.6 B2g   1  3d1+         0.148200     1.000000
              2  3d1+  
    7.6 B2g   1  3d1+         0.065600     1.000000
              2  3d1+  
    8.6 B2g   1  4f1+         0.228000     1.000000
              2 -4f1+  
    9.6 B2g   1  4f3+         0.228000     1.000000
              2 -4f3+  
   10.6 B2g   1  4f1+         0.113500     1.000000
              2 -4f1+  
   11.6 B2g   1  4f3+         0.113500     1.000000
              2 -4f3+  
   12.6 B2g   1  5g1+         0.231900     1.000000
              2  5g1+  
   13.6 B2g   1  5g3+         0.231900     1.000000
              2  5g3+  
    1.7 B3g   1  2py          6.250000     0.003388    0.000000    0.000000    0.000000
    2.7 B3g   2 -2py          1.370000     0.019316    0.000000    0.000000    0.000000
    3.7 B3g                   0.367200     0.079104    0.000000    0.000000    0.000000
    4.7 B3g                   0.119200     0.274095    1.000000    0.000000    0.000000
                              0.044740     0.519488    0.000000    1.000000    0.000000
                              0.017950     0.284423    0.000000    0.000000    1.000000
    5.7 B3g   1  3d1-         0.335200     1.000000
              2  3d1-  
    6.7 B3g   1  3d1-         0.148200     1.000000
              2  3d1-  
    7.7 B3g   1  3d1-         0.065600     1.000000
              2  3d1-  
    8.7 B3g   1  4f1-         0.228000     1.000000
              2 -4f1-  
    9.7 B3g   1  4f3-         0.228000     1.000000
              2 -4f3-  
   10.7 B3g   1  4f1-         0.113500     1.000000
              2 -4f1-  
   11.7 B3g   1  4f3-         0.113500     1.000000
              2 -4f3-  
   12.7 B3g   1  5g1-         0.231900     1.000000
              2  5g1-  
   13.7 B3g   1  5g3-         0.231900     1.000000
              2  5g3-  
    1.8 Au    1  3d2-         0.335200     1.000000
              2 -3d2-  
    2.8 Au    1  3d2-         0.148200     1.000000
              2 -3d2-  
    3.8 Au    1  3d2-         0.065600     1.000000
              2 -3d2-  
    4.8 Au    1  4f2-         0.228000     1.000000
              2  4f2-  
    5.8 Au    1  4f2-         0.113500     1.000000
              2  4f2-  
    6.8 Au    1  5g2-         0.231900     1.000000
              2 -5g2-  
    7.8 Au    1  5g4-         0.231900     1.000000
              2 -5g4-  

 NUCLEAR CHARGE:                    6
 NUMBER OF PRIMITIVE AOS:         166
 NUMBER OF SYMMETRY AOS:          136
 NUMBER OF CONTRACTIONS:          110   (   22Ag  +   13B3u +   13B2u +    7B1g +   22B1u +   13B2g +   13B3g +    7Au  )
 NUMBER OF CORE ORBITALS:           2   (    1Ag  +    0B3u +    0B2u +    0B1g +    1B1u +    0B2g +    0B3g +    0Au  )
 NUMBER OF VALENCE ORBITALS:        8   (    2Ag  +    1B3u +    1B2u +    0B1g +    2B1u +    1B2g +    1B3g +    0Au  )


 NUCLEAR REPULSION ENERGY    1.80000000

 EXTRA SYMMETRY OF AOS IN SYMMETRY 1:   1 1 1 1 1 1 1 1 1 1   2 1 2 1 2 1 2 1 2 1   3 2
 EXTRA SYMMETRY OF AOS IN SYMMETRY 2:   1 1 1 1 1 1 1 1 2 1   2 1 2
 EXTRA SYMMETRY OF AOS IN SYMMETRY 3:   1 1 1 1 1 1 1 1 2 1   2 1 2
 EXTRA SYMMETRY OF AOS IN SYMMETRY 4:   1 1 1 1 1 1 2
 EXTRA SYMMETRY OF AOS IN SYMMETRY 5:   1 1 1 1 1 1 1 1 1 1   2 1 2 1 2 1 2 1 2 1   3 2
 EXTRA SYMMETRY OF AOS IN SYMMETRY 6:   1 1 1 1 1 1 1 1 2 1   2 1 2
 EXTRA SYMMETRY OF AOS IN SYMMETRY 7:   1 1 1 1 1 1 1 1 2 1   2 1 2
 EXTRA SYMMETRY OF AOS IN SYMMETRY 8:   1 1 1 1 1 1 2

 Eigenvalues of metric

         1 0.994E-03 0.132E-02 0.325E-02 0.199E-01 0.547E-01 0.104E+00 0.149E+00 0.239E+00
         2 0.291E-02 0.573E-01 0.850E-01 0.172E+00 0.265E+00 0.482E+00 0.871E+00 0.113E+01
         3 0.291E-02 0.573E-01 0.850E-01 0.172E+00 0.265E+00 0.482E+00 0.871E+00 0.113E+01
         4 0.104E+00 0.239E+00 0.742E+00 0.106E+01 0.121E+01 0.202E+01 0.331E+01
         5 0.207E-03 0.332E-03 0.104E-02 0.290E-02 0.748E-02 0.380E-01 0.611E-01 0.743E-01
         6 0.112E-02 0.647E-02 0.162E-01 0.619E-01 0.145E+00 0.190E+00 0.218E+00 0.538E+00
         7 0.112E-02 0.647E-02 0.162E-01 0.619E-01 0.145E+00 0.190E+00 0.218E+00 0.538E+00
         8 0.611E-01 0.743E-01 0.274E+00 0.541E+00 0.945E+00 0.128E+01 0.214E+01


 Contracted 2-electron integrals neglected if value below      1.0D-11
 AO integral compression algorithm  1   Integral accuracy      1.0D-11

     15.729 MB (compressed) written to integral file ( 45.3%)


 NUMBER OF SORTED TWO-ELECTRON INTEGRALS:    2445884.     BUFFER LENGTH:  32768
 NUMBER OF SEGMENTS:   1  SEGMENT LENGTH:    2445884      RECORD LENGTH: 524288

 Memory used in sort:       3.00 MW

 SORT1 READ     4396992. AND WROTE     1896858. INTEGRALS IN      6 RECORDS. CPU TIME:     0.10 SEC, REAL TIME:     0.11 SEC
 SORT2 READ     1896858. AND WROTE     2445884. INTEGRALS IN     60 RECORDS. CPU TIME:     0.25 SEC, REAL TIME:     0.30 SEC

 FILE SIZES:   FILE 1:    46.0 MBYTE,  FILE 4:    25.2 MBYTE,   TOTAL:     71.2 MBYTE

 OPERATOR DM      FOR CENTER  0  COORDINATES:    0.000000    0.000000    0.000000


 **********************************************************************************************************************************
 DATASETS  * FILE   NREC   LENGTH (MB)   RECORD NAMES
              1      19       39.16       500      700      610      900      950      970     1000      129      960     1100   
                                          VAR     GEOM    BASINP   SYMINP    ZMAT    AOBASIS   BASIS     P2S    ABASIS      S 
                                         1400     1410     1200     1210     1080     1600     1650     1300     1700   
                                           T        V       H0       H01     AOSYM     SMH    MOLCAS    ERIS     OPER   

              3       5       14.82       500      610      700     1000     2100   
                                          VAR    BASINP    GEOM     BASIS     RHF  

 PROGRAMS   *        TOTAL       INT   RESTART
 CPU TIMES  *         1.15      1.05      0.02
 REAL TIME  *         1.35 SEC
 DISK USED  *        86.27 MB
 **********************************************************************************************************************************


 PROGRAM * BCCD (Closed-shell Brueckner coupled-cluster)     Authors: C. Hampel, H.-J. Werner, 1991, M. Deegan, P.J. Knowles, 1992


 Input parameters for THRESH:

 ENERGY   =    1.00D-10
 COEFF    =    1.00D-12
 PRINTCI  =    0.000000
 THRPRINT =    0.000000

 Convergence thresholds:  THRVAR = 1.00D-24  THRDEN = 1.00D-10

 Number of closed-shell orbitals:   3 (   2   0   0   0   1   0   0   0 )
 Number of external orbitals:     107 (  20  13  13   7  21  13  13   7 )

 Molecular orbitals read from record     2100.3  Type=RHF/CANONICAL (state 1.1)

 Number of N-1 electron functions:               3
 Number of N-2 electron functions:               6
 Number of singly external CSFs:                61
 Number of doubly external CSFs:              7426
 Total number of CSFs:                        7488

 Brueckner orbitals will be computed and saved on record    2150.2

 Length of J-op  integral file:               0.00 MB
 Length of K-op  integral file:               0.17 MB

 Integral transformation finished. Total CPU:   0.01 sec, npass=  1  Memory used:   0.08 MW

 Reference energy:                    -14.87127592

 MP2 singles energy:                   -0.00000000
 MP2 singlet pair energy:              -0.05337723
 MP2 triplet pair energy:              -0.00151225
 MP2 correlation energy:               -0.05488948
 MP2 total energy:                    -14.92616541

 SCS-MP2 correlation energy:           -0.06499364   (PS=  1.200000  PT=  0.333333)
 SCS-MP2 total energy:                -14.93626956

 ITER.      SQ.NORM     CORR.ENERGY   TOTAL ENERGY   ENERGY CHANGE        DEN1      VAR(S)    VAR(P)  DIIS     TIME  TIME/IT
   1      1.05350554    -0.06587155   -14.93714748    -0.01098207    -0.00674785  0.24D-03  0.24D-02  1  1     0.07     0.04
   2      1.08416771    -0.06812147   -14.93928894    -0.00224992    -0.00678131  0.83D-04  0.10D-02  2  2     0.13     0.05
   3      1.09792059    -0.06964780   -14.94054900    -0.00152633    -0.00143994  0.68D-05  0.13D-03  3  3     0.18     0.05
   4      1.10098502    -0.06981858   -14.94064761    -0.00017078     0.00026595  0.12D-05  0.23D-04  4  4     0.22     0.05
   5      1.10254991    -0.06981970   -14.94068223    -0.00000112    -0.00022238  0.34D-06  0.39D-05  5  5     0.27     0.05
   6      1.10247783    -0.06981821   -14.94067854     0.00000149    -0.00002219  0.13D-06  0.59D-06  6  6     0.33     0.06
   7      1.10253485    -0.06982155   -14.94068077    -0.00000335     0.00001636  0.54D-07  0.75D-07  6  1     0.37     0.06
   8      1.10253056    -0.06982244   -14.94068046    -0.00000089     0.00000204  0.19D-07  0.13D-07  6  2     0.41     0.05
   9      1.10253907    -0.06982380   -14.94068060    -0.00000136    -0.00000704  0.53D-08  0.35D-08  6  3     0.47     0.06
  10      1.10251771    -0.06982505   -14.94068039    -0.00000125    -0.00000108  0.79D-09  0.91D-09  6  4     0.53     0.06
  11      1.10251172    -0.06982590   -14.94068055    -0.00000085     0.00000114  0.58D-10  0.90D-10  6  5     0.57     0.06
  12      1.10251167    -0.06982601   -14.94068060    -0.00000011     0.00000010  0.70D-11  0.18D-10  6  3     0.61     0.05
  13      1.10251289    -0.06982602   -14.94068060    -0.00000001    -0.00000019  0.88D-12  0.52D-11  6  6     0.64     0.05
  14      1.10251364    -0.06982602   -14.94068059     0.00000000    -0.00000014  0.74D-13  0.12D-11  6  1     0.68     0.05
  15      1.10251387    -0.06982602   -14.94068058    -0.00000000    -0.00000001  0.12D-13  0.25D-12  6  2     0.70     0.05
  16      1.10251396    -0.06982602   -14.94068058     0.00000000     0.00000001  0.26D-14  0.61D-13  6  4     0.73     0.05
  17      1.10251397    -0.06982602   -14.94068058     0.00000000     0.00000000  0.12D-14  0.11D-13  6  5     0.76     0.05
  18      1.10251398    -0.06982602   -14.94068058     0.00000000    -0.00000000  0.13D-14  0.23D-14  6  6     0.80     0.05
  19      1.10251398    -0.06982602   -14.94068058    -0.00000000    -0.00000000  0.62D-15  0.47D-15  6  3     0.83     0.05
  20      1.10251397    -0.06982602   -14.94068058    -0.00000000    -0.00000000  0.15D-15  0.11D-15  6  1     0.86     0.05
  21      1.10251397    -0.06982602   -14.94068058    -0.00000000     0.00000000  0.22D-16  0.27D-16  6  4     0.89     0.05
  22      1.10251397    -0.06982602   -14.94068058    -0.00000000     0.00000000  0.90D-18  0.44D-17  6  2     0.92     0.05
  23      1.10251397    -0.06982602   -14.94068058    -0.00000000    -0.00000000  0.12D-18  0.77D-18  6  6     0.95     0.05
  24      1.10251397    -0.06982602   -14.94068058    -0.00000000    -0.00000000  0.28D-19  0.26D-18  6  5     0.98     0.05
  25      1.10251397    -0.06982602   -14.94068058    -0.00000000     0.00000000  0.23D-20  0.43D-19  6  3     1.01     0.05
  26      1.10251397    -0.06982602   -14.94068058     0.00000000    -0.00000000  0.13D-20  0.11D-19  6  1     1.05     0.05
  27      1.10251397    -0.06982602   -14.94068058     0.00000000    -0.00000000  0.82D-21  0.16D-20  6  4     1.08     0.04
  28      1.10251397    -0.06982602   -14.94068058     0.00000000    -0.00000000  0.29D-21  0.21D-21  6  2     1.12     0.04
  29      1.10251397    -0.06982602   -14.94068058     0.00000000    -0.00000000  0.12D-21  0.52D-22  6  6     1.15     0.04
  30      1.10251397    -0.06982602   -14.94068058     0.00000000     0.00000000  0.36D-22  0.18D-22  6  5     1.18     0.04
  31      1.10251397    -0.06982602   -14.94068058     0.00000000     0.00000000  0.53D-23  0.52D-23  6  3     1.21     0.04
  32      1.10251397    -0.06982602   -14.94068058     0.00000000     0.00000000  0.10D-23  0.17D-23  6  2     1.24     0.04
  33      1.10251397    -0.06982602   -14.94068058     0.00000000     0.00000000  0.61D-24  0.55D-24  6  1     1.28     0.04
  34      1.10251397    -0.06982602   -14.94068058    -0.00000000    -0.00000000  0.17D-24  0.26D-24  6  4     1.31     0.04

 Norm of t1 vector:      0.00000000      S-energy:    -0.00000000      T1 diagnostic:  0.00000000

 Orbital rotation generators (print threshold =  0.000E+00):

         I         SYM. A    A   T(IA)

         1         1         1      0.00021877
         1         1         2     -0.00065874
         1         1         3     -0.00042274
         1         1         4      0.00000000
         1         1         5      0.00048916
         1         1         6      0.00069756
         1         1         7      0.00211226
         1         1         8     -0.00000000
         1         1         9     -0.00000000
         1         1        10     -0.00013247
         1         1        11     -0.00015909
         1         1        12      0.00022493
         1         1        13      0.00000000
         1         1        14      0.00000000
         1         1        15      0.00009838
         1         1        16     -0.00000000
         1         1        17     -0.00028584
         1         1        18     -0.00000000
         1         1        19     -0.00095703
         1         1        20     -0.00131024
         2         1         1      0.01925953
         2         1         2     -0.01956546
         2         1         3      0.00651594
         2         1         4     -0.00000000
         2         1         5      0.00622256
         2         1         6      0.00023182
         2         1         7      0.00357340
         2         1         8     -0.00000000
         2         1         9     -0.00000000
         2         1        10     -0.00029785
         2         1        11     -0.00054010
         2         1        12     -0.00040428
         2         1        13     -0.00000000
         2         1        14      0.00000000
         2         1        15     -0.00028212
         2         1        16      0.00000000
         2         1        17     -0.00004463
         2         1        18     -0.00000000
         2         1        19     -0.00008743
         2         1        20     -0.00022660
         3         5         1     -0.00112013
         3         5         2      0.00110904
         3         5         3     -0.00051863
         3         5         4     -0.00137915
         3         5         5     -0.00000000
         3         5         6      0.00014983
         3         5         7      0.00217624
         3         5         8      0.00009453
         3         5         9     -0.00000000
         3         5        10      0.00010010
         3         5        11     -0.00000000
         3         5        12      0.00127628
         3         5        13      0.00000000
         3         5        14      0.00000000
         3         5        15      0.00059438
         3         5        16     -0.00167403
         3         5        17      0.00000000
         3         5        18     -0.00015179
         3         5        19      0.00000000
         3         5        20      0.00079945
         3         5        21     -0.00034409

 Doubles amplitudes (print threshold =  0.000E+00):

         I         J         SYM. A    SYM. B    A         B      T(IJ, AB)

         1         1         1         1         1         1     -0.00005927
         1         1         1         1         1         2      0.00009180
         1         1         1         1         1         3     -0.00006701
         1         1         1         1         1         4     -0.00000000
         1         1         1         1         1         5     -0.00019377
         1         1         1         1         1         6      0.00005199
         1         1         1         1         1         7     -0.00020393
         1         1         1         1         1         8     -0.00000000
         1         1         1         1         1         9      0.00000000
         1         1         1         1         1        10     -0.00013273
         1         1         1         1         1        11     -0.00010923
         1         1         1         1         1        12     -0.00041021
         1         1         1         1         1        13      0.00000000
         1         1         1         1         1        14      0.00000000
         1         1         1         1         1        15      0.00006415
         1         1         1         1         1        16     -0.00000000
         1         1         1         1         1        17     -0.00019754
         1         1         1         1         1        18      0.00000000
         1         1         1         1         1        19     -0.00021877
         1         1         1         1         1        20      0.00073466
         1         1         1         1         2         1      0.00009180
         1         1         1         1         2         2     -0.00020699
         1         1         1         1         2         3     -0.00003685
         1         1         1         1         2         4     -0.00000000
         1         1         1         1         2         5      0.00025153
         1         1         1         1         2         6      0.00011805
         1         1         1         1         2         7      0.00062887
         1         1         1         1         2         8      0.00000000
         1         1         1         1         2         9     -0.00000000
         1         1         1         1         2        10      0.00007144
         1         1         1         1         2        11      0.00004764
         1         1         1         1         2        12      0.00038433
         1         1         1         1         2        13     -0.00000000
         1         1         1         1         2        14      0.00000000
         1         1         1         1         2        15     -0.00000144
         1         1         1         1         2        16      0.00000000
         1         1         1         1         2        17      0.00005539
         1         1         1         1         2        18      0.00000000
         1         1         1         1         2        19     -0.00022169
         1         1         1         1         2        20     -0.00164579
         1         1         1         1         3         1     -0.00006701
         1         1         1         1         3         2     -0.00003685
         1         1         1         1         3         3     -0.00030994
         1         1         1         1         3         4     -0.00000000
         1         1         1         1         3         5     -0.00021185
         1         1         1         1         3         6      0.00037684
         1         1         1         1         3         7      0.00042429
         1         1         1         1         3         8      0.00000000
         1         1         1         1         3         9     -0.00000000
         1         1         1         1         3        10     -0.00030492
         1         1         1         1         3        11     -0.00027668
         1         1         1         1         3        12     -0.00066499
         1         1         1         1         3        13     -0.00000000
         1         1         1         1         3        14      0.00000000
         1         1         1         1         3        15      0.00020556
         1         1         1         1         3        16      0.00000000
         1         1         1         1         3        17     -0.00054788
         1         1         1         1         3        18     -0.00000000
         1         1         1         1         3        19     -0.00109886
         1         1         1         1         3        20     -0.00045951
         1         1         1         1         4         1     -0.00000000
         1         1         1         1         4         2     -0.00000000
         1         1         1         1         4         3     -0.00000000
         1         1         1         1         4         4      0.00000465
         1         1         1         1         4         5     -0.00000000
         1         1         1         1         4         6     -0.00000000
         1         1         1         1         4         7     -0.00000000
         1         1         1         1         4         8      0.00000216
         1         1         1         1         4         9     -0.00000409
         1         1         1         1         4        10     -0.00000000
         1         1         1         1         4        11      0.00000000
         1         1         1         1         4        12     -0.00000000
         1         1         1         1         4        13      0.00000003
         1         1         1         1         4        14     -0.00000000
         1         1         1         1         4        15      0.00000000
         1         1         1         1         4        16     -0.00000230
         1         1         1         1         4        17     -0.00000000
         1         1         1         1         4        18     -0.00002779
         1         1         1         1         4        19     -0.00000000
         1         1         1         1         4        20     -0.00000000
         1         1         1         1         5         1     -0.00019377
         1         1         1         1         5         2      0.00025153
         1         1         1         1         5         3     -0.00021185
         1         1         1         1         5         4     -0.00000000
         1         1         1         1         5         5     -0.00047908
         1         1         1         1         5         6      0.00013926
         1         1         1         1         5         7     -0.00044301
         1         1         1         1         5         8      0.00000000
         1         1         1         1         5         9      0.00000000
         1         1         1         1         5        10     -0.00030139
         1         1         1         1         5        11     -0.00027064
         1         1         1         1         5        12     -0.00092477
         1         1         1         1         5        13      0.00000000
         1         1         1         1         5        14      0.00000000
         1         1         1         1         5        15      0.00012901
         1         1         1         1         5        16     -0.00000000
         1         1         1         1         5        17     -0.00045058
         1         1         1         1         5        18     -0.00000000
         1         1         1         1         5        19     -0.00056122
         1         1         1         1         5        20      0.00160658
         1         1         1         1         6         1      0.00005199
         1         1         1         1         6         2      0.00011805
         1         1         1         1         6         3      0.00037684
         1         1         1         1         6         4     -0.00000000
         1         1         1         1         6         5      0.00013926
         1         1         1         1         6         6     -0.00046849
         1         1         1         1         6         7     -0.00073456
         1         1         1         1         6         8      0.00000000
         1         1         1         1         6         9      0.00000000
         1         1         1         1         6        10      0.00030652
         1         1         1         1         6        11      0.00029116
         1         1         1         1         6        12      0.00058178
         1         1         1         1         6        13     -0.00000000
         1         1         1         1         6        14      0.00000000
         1         1         1         1         6        15     -0.00022826
         1         1         1         1         6        16      0.00000000
         1         1         1         1         6        17      0.00059333
         1         1         1         1         6        18     -0.00000000
         1         1         1         1         6        19      0.00133154
         1         1         1         1         6        20      0.00121925
         1         1         1         1         7         1     -0.00020393
         1         1         1         1         7         2      0.00062887
         1         1         1         1         7         3      0.00042429
         1         1         1         1         7         4     -0.00000000
         1         1         1         1         7         5     -0.00044301
         1         1         1         1         7         6     -0.00073456
         1         1         1         1         7         7     -0.00213035
         1         1         1         1         7         8     -0.00000000
         1         1         1         1         7         9     -0.00000000
         1         1         1         1         7        10      0.00016767
         1         1         1         1         7        11      0.00019272
         1         1         1         1         7        12     -0.00021616
         1         1         1         1         7        13      0.00000000
         1         1         1         1         7        14      0.00000000
         1         1         1         1         7        15     -0.00023646
         1         1         1         1         7        16      0.00000000
         1         1         1         1         7        17      0.00049214
         1         1         1         1         7        18      0.00000000
         1         1         1         1         7        19      0.00185264
         1         1         1         1         7        20      0.00480170
         1         1         1         1         8         1     -0.00000000
         1         1         1         1         8         2      0.00000000
         1         1         1         1         8         3      0.00000000
         1         1         1         1         8         4      0.00000216
         1         1         1         1         8         5      0.00000000
         1         1         1         1         8         6      0.00000000
         1         1         1         1         8         7     -0.00000000
         1         1         1         1         8         8      0.00000568
         1         1         1         1         8         9     -0.00000152
         1         1         1         1         8        10      0.00000000
         1         1         1         1         8        11     -0.00000000
         1         1         1         1         8        12     -0.00000000
         1         1         1         1         8        13      0.00000070
         1         1         1         1         8        14     -0.00000000
         1         1         1         1         8        15     -0.00000000
         1         1         1         1         8        16     -0.00000024
         1         1         1         1         8        17     -0.00000000
         1         1         1         1         8        18     -0.00001497
         1         1         1         1         8        19     -0.00000000
         1         1         1         1         8        20      0.00000000
         1         1         1         1         9         1      0.00000000
         1         1         1         1         9         2     -0.00000000
         1         1         1         1         9         3     -0.00000000
         1         1         1         1         9         4     -0.00000409
         1         1         1         1         9         5      0.00000000
         1         1         1         1         9         6      0.00000000
         1         1         1         1         9         7     -0.00000000
         1         1         1         1         9         8     -0.00000152
         1         1         1         1         9         9     -0.00000711
         1         1         1         1         9        10      0.00000000
         1         1         1         1         9        11      0.00000000
         1         1         1         1         9        12      0.00000000
         1         1         1         1         9        13     -0.00000091
         1         1         1         1         9        14     -0.00000000
         1         1         1         1         9        15     -0.00000000
         1         1         1         1         9        16     -0.00000476
         1         1         1         1         9        17     -0.00000000
         1         1         1         1         9        18     -0.00005243
         1         1         1         1         9        19      0.00000000
         1         1         1         1         9        20      0.00000000
         1         1         1         1        10         1     -0.00013273
         1         1         1         1        10         2      0.00007144
         1         1         1         1        10         3     -0.00030492
         1         1         1         1        10         4     -0.00000000
         1         1         1         1        10         5     -0.00030139
         1         1         1         1        10         6      0.00030652
         1         1         1         1        10         7      0.00016767
         1         1         1         1        10         8      0.00000000
         1         1         1         1        10         9      0.00000000
         1         1         1         1        10        10     -0.00029372
         1         1         1         1        10        11     -0.00026845
         1         1         1         1        10        12     -0.00074460
         1         1         1         1        10        13     -0.00000000
         1         1         1         1        10        14     -0.00000000
         1         1         1         1        10        15      0.00020069
         1         1         1         1        10        16     -0.00000000
         1         1         1         1        10        17     -0.00054040
         1         1         1         1        10        18     -0.00000000
         1         1         1         1        10        19     -0.00094642
         1         1         1         1        10        20      0.00013835
         1         1         1         1        11         1     -0.00010923
         1         1         1         1        11         2      0.00004764
         1         1         1         1        11         3     -0.00027668
         1         1         1         1        11         4      0.00000000
         1         1         1         1        11         5     -0.00027064
         1         1         1         1        11         6      0.00029116
         1         1         1         1        11         7      0.00019272
         1         1         1         1        11         8     -0.00000000
         1         1         1         1        11         9      0.00000000
         1         1         1         1        11        10     -0.00026845
         1         1         1         1        11        11     -0.00026793
         1         1         1         1        11        12     -0.00064937
         1         1         1         1        11        13      0.00000000
         1         1         1         1        11        14      0.00000000
         1         1         1         1        11        15      0.00013064
         1         1         1         1        11        16     -0.00000000
         1         1         1         1        11        17     -0.00046080
         1         1         1         1        11        18     -0.00000000
         1         1         1         1        11        19     -0.00094456
         1         1         1         1        11        20      0.00003540
         1         1         1         1        12         1     -0.00041021
         1         1         1         1        12         2      0.00038433
         1         1         1         1        12         3     -0.00066499
         1         1         1         1        12         4     -0.00000000
         1         1         1         1        12         5     -0.00092477
         1         1         1         1        12         6      0.00058178
         1         1         1         1        12         7     -0.00021616
         1         1         1         1        12         8     -0.00000000
         1         1         1         1        12         9      0.00000000
         1         1         1         1        12        10     -0.00074460
         1         1         1         1        12        11     -0.00064937
         1         1         1         1        12        12     -0.00212981
         1         1         1         1        12        13      0.00000000
         1         1         1         1        12        14      0.00000000
         1         1         1         1        12        15      0.00050586
         1         1         1         1        12        16     -0.00000000
         1         1         1         1        12        17     -0.00138331
         1         1         1         1        12        18     -0.00000000
         1         1         1         1        12        19     -0.00208784
         1         1         1         1        12        20      0.00193289
         1         1         1         1        13         1      0.00000000
         1         1         1         1        13         2     -0.00000000
         1         1         1         1        13         3     -0.00000000
         1         1         1         1        13         4      0.00000003
         1         1         1         1        13         5      0.00000000
         1         1         1         1        13         6     -0.00000000
         1         1         1         1        13         7      0.00000000
         1         1         1         1        13         8      0.00000070
         1         1         1         1        13         9     -0.00000091
         1         1         1         1        13        10     -0.00000000
         1         1         1         1        13        11      0.00000000
         1         1         1         1        13        12      0.00000000
         1         1         1         1        13        13     -0.00000587
         1         1         1         1        13        14     -0.00000000
         1         1         1         1        13        15      0.00000000
         1         1         1         1        13        16      0.00000400
         1         1         1         1        13        17      0.00000000
         1         1         1         1        13        18     -0.00000481
         1         1         1         1        13        19      0.00000000
         1         1         1         1        13        20     -0.00000000
         1         1         1         1        14         1      0.00000000
         1         1         1         1        14         2      0.00000000
         1         1         1         1        14         3      0.00000000
         1         1         1         1        14         4     -0.00000000
         1         1         1         1        14         5      0.00000000
         1         1         1         1        14         6      0.00000000
         1         1         1         1        14         7      0.00000000
         1         1         1         1        14         8     -0.00000000
         1         1         1         1        14         9     -0.00000000
         1         1         1         1        14        10     -0.00000000
         1         1         1         1        14        11      0.00000000
         1         1         1         1        14        12      0.00000000
         1         1         1         1        14        13     -0.00000000
         1         1         1         1        14        14      0.00000215
         1         1         1         1        14        15     -0.00000000
         1         1         1         1        14        16      0.00000000
         1         1         1         1        14        17      0.00000000
         1         1         1         1        14        18      0.00000000
         1         1         1         1        14        19     -0.00000000
         1         1         1         1        14        20     -0.00000000
         1         1         1         1        15         1      0.00006415
         1         1         1         1        15         2     -0.00000144
         1         1         1         1        15         3      0.00020556
         1         1         1         1        15         4      0.00000000
         1         1         1         1        15         5      0.00012901
         1         1         1         1        15         6     -0.00022826
         1         1         1         1        15         7     -0.00023646
         1         1         1         1        15         8     -0.00000000
         1         1         1         1        15         9     -0.00000000
         1         1         1         1        15        10      0.00020069
         1         1         1         1        15        11      0.00013064
         1         1         1         1        15        12      0.00050586
         1         1         1         1        15        13      0.00000000
         1         1         1         1        15        14     -0.00000000
         1         1         1         1        15        15     -0.00024949
         1         1         1         1        15        16      0.00000000
         1         1         1         1        15        17      0.00045814
         1         1         1         1        15        18      0.00000000
         1         1         1         1        15        19      0.00069514
         1         1         1         1        15        20      0.00025939
         1         1         1         1        16         1     -0.00000000
         1         1         1         1        16         2      0.00000000
         1         1         1         1        16         3      0.00000000
         1         1         1         1        16         4     -0.00000230
         1         1         1         1        16         5     -0.00000000
         1         1         1         1        16         6      0.00000000
         1         1         1         1        16         7      0.00000000
         1         1         1         1        16         8     -0.00000024
         1         1         1         1        16         9     -0.00000476
         1         1         1         1        16        10     -0.00000000
         1         1         1         1        16        11     -0.00000000
         1         1         1         1        16        12     -0.00000000
         1         1         1         1        16        13      0.00000400
         1         1         1         1        16        14      0.00000000
         1         1         1         1        16        15      0.00000000
         1         1         1         1        16        16     -0.00000223
         1         1         1         1        16        17     -0.00000000
         1         1         1         1        16        18     -0.00002424
         1         1         1         1        16        19     -0.00000000
         1         1         1         1        16        20     -0.00000000
         1         1         1         1        17         1     -0.00019754
         1         1         1         1        17         2      0.00005539
         1         1         1         1        17         3     -0.00054788
         1         1         1         1        17         4     -0.00000000
         1         1         1         1        17         5     -0.00045058
         1         1         1         1        17         6      0.00059333
         1         1         1         1        17         7      0.00049214
         1         1         1         1        17         8     -0.00000000
         1         1         1         1        17         9     -0.00000000
         1         1         1         1        17        10     -0.00054040
         1         1         1         1        17        11     -0.00046080
         1         1         1         1        17        12     -0.00138331
         1         1         1         1        17        13      0.00000000
         1         1         1         1        17        14      0.00000000
         1         1         1         1        17        15      0.00045814
         1         1         1         1        17        16     -0.00000000
         1         1         1         1        17        17     -0.00112498
         1         1         1         1        17        18      0.00000000
         1         1         1         1        17        19     -0.00197541
         1         1         1         1        17        20     -0.00028120
         1         1         1         1        18         1      0.00000000
         1         1         1         1        18         2      0.00000000
         1         1         1         1        18         3     -0.00000000
         1         1         1         1        18         4     -0.00002779
         1         1         1         1        18         5     -0.00000000
         1         1         1         1        18         6     -0.00000000
         1         1         1         1        18         7      0.00000000
         1         1         1         1        18         8     -0.00001497
         1         1         1         1        18         9     -0.00005243
         1         1         1         1        18        10     -0.00000000
         1         1         1         1        18        11     -0.00000000
         1         1         1         1        18        12     -0.00000000
         1         1         1         1        18        13     -0.00000481
         1         1         1         1        18        14      0.00000000
         1         1         1         1        18        15      0.00000000
         1         1         1         1        18        16     -0.00002424
         1         1         1         1        18        17      0.00000000
         1         1         1         1        18        18     -0.00022182
         1         1         1         1        18        19     -0.00000000
         1         1         1         1        18        20     -0.00000000
         1         1         1         1        19         1     -0.00021877
         1         1         1         1        19         2     -0.00022169
         1         1         1         1        19         3     -0.00109886
         1         1         1         1        19         4     -0.00000000
         1         1         1         1        19         5     -0.00056122
         1         1         1         1        19         6      0.00133154
         1         1         1         1        19         7      0.00185264
         1         1         1         1        19         8     -0.00000000
         1         1         1         1        19         9      0.00000000
         1         1         1         1        19        10     -0.00094642
         1         1         1         1        19        11     -0.00094456
         1         1         1         1        19        12     -0.00208784
         1         1         1         1        19        13      0.00000000
         1         1         1         1        19        14     -0.00000000
         1         1         1         1        19        15      0.00069514
         1         1         1         1        19        16     -0.00000000
         1         1         1         1        19        17     -0.00197541
         1         1         1         1        19        18     -0.00000000
         1         1         1         1        19        19     -0.00447145
         1         1         1         1        19        20     -0.00318658
         1         1         1         1        20         1      0.00073466
         1         1         1         1        20         2     -0.00164579
         1         1         1         1        20         3     -0.00045951
         1         1         1         1        20         4     -0.00000000
         1         1         1         1        20         5      0.00160658
         1         1         1         1        20         6      0.00121925
         1         1         1         1        20         7      0.00480170
         1         1         1         1        20         8      0.00000000
         1         1         1         1        20         9      0.00000000
         1         1         1         1        20        10      0.00013835
         1         1         1         1        20        11      0.00003540
         1         1         1         1        20        12      0.00193289
         1         1         1         1        20        13     -0.00000000
         1         1         1         1        20        14     -0.00000000
         1         1         1         1        20        15      0.00025939
         1         1         1         1        20        16     -0.00000000
         1         1         1         1        20        17     -0.00028120
         1         1         1         1        20        18     -0.00000000
         1         1         1         1        20        19     -0.00318658
         1         1         1         1        20        20     -0.01458192
         1         1         2         2         1         1      0.00003723
         1         1         2         2         1         2      0.00002397
         1         1         2         2         1         3      0.00000483
         1         1         2         2         1         4     -0.00018384
         1         1         2         2         1         5      0.00000000
         1         1         2         2         1         6      0.00003809
         1         1         2         2         1         7      0.00002332
         1         1         2         2         1         8     -0.00057206
         1         1         2         2         1         9     -0.00000000
         1         1         2         2         1        10      0.00011168
         1         1         2         2         1        11     -0.00000000
         1         1         2         2         1        12      0.00004157
         1         1         2         2         1        13     -0.00009710
         1         1         2         2         2         1      0.00002397
         1         1         2         2         2         2     -0.00013142
         1         1         2         2         2         3      0.00002373
         1         1         2         2         2         4      0.00036432
         1         1         2         2         2         5     -0.00000000
         1         1         2         2         2         6     -0.00005744
         1         1         2         2         2         7     -0.00004329
         1         1         2         2         2         8      0.00108722
         1         1         2         2         2         9      0.00000000
         1         1         2         2         2        10     -0.00021121
         1         1         2         2         2        11      0.00000000
         1         1         2         2         2        12     -0.00007939
         1         1         2         2         2        13      0.00018504
         1         1         2         2         3         1      0.00000483
         1         1         2         2         3         2      0.00002373
         1         1         2         2         3         3     -0.00000217
         1         1         2         2         3         4     -0.00009330
         1         1         2         2         3         5     -0.00000000
         1         1         2         2         3         6      0.00001002
         1         1         2         2         3         7      0.00001328
         1         1         2         2         3         8     -0.00028032
         1         1         2         2         3         9     -0.00000000
         1         1         2         2         3        10      0.00004463
         1         1         2         2         3        11      0.00000000
         1         1         2         2         3        12     -0.00000163
         1         1         2         2         3        13     -0.00007021
         1         1         2         2         4         1     -0.00018384
         1         1         2         2         4         2      0.00036432
         1         1         2         2         4         3     -0.00009330
         1         1         2         2         4         4     -0.00065182
         1         1         2         2         4         5      0.00000000
         1         1         2         2         4         6      0.00007375
         1         1         2         2         4         7      0.00007172
         1         1         2         2         4         8     -0.00185026
         1         1         2         2         4         9      0.00000000
         1         1         2         2         4        10      0.00035921
         1         1         2         2         4        11     -0.00000000
         1         1         2         2         4        12      0.00014183
         1         1         2         2         4        13     -0.00030670
         1         1         2         2         5         1      0.00000000
         1         1         2         2         5         2     -0.00000000
         1         1         2         2         5         3     -0.00000000
         1         1         2         2         5         4      0.00000000
         1         1         2         2         5         5      0.00000450
         1         1         2         2         5         6     -0.00000000
         1         1         2         2         5         7     -0.00000000
         1         1         2         2         5         8      0.00000000
         1         1         2         2         5         9      0.00000110
         1         1         2         2         5        10     -0.00000000
         1         1         2         2         5        11      0.00000008
         1         1         2         2         5        12     -0.00000000
         1         1         2         2         5        13      0.00000000
         1         1         2         2         6         1      0.00003809
         1         1         2         2         6         2     -0.00005744
         1         1         2         2         6         3      0.00001002
         1         1         2         2         6         4      0.00007375
         1         1         2         2         6         5     -0.00000000
         1         1         2         2         6         6     -0.00001849
         1         1         2         2         6         7     -0.00000432
         1         1         2         2         6         8      0.00021095
         1         1         2         2         6         9      0.00000000
         1         1         2         2         6        10     -0.00006309
         1         1         2         2         6        11      0.00000000
         1         1         2         2         6        12     -0.00006317
         1         1         2         2         6        13     -0.00001400
         1         1         2         2         7         1      0.00002332
         1         1         2         2         7         2     -0.00004329
         1         1         2         2         7         3      0.00001328
         1         1         2         2         7         4      0.00007172
         1         1         2         2         7         5     -0.00000000
         1         1         2         2         7         6     -0.00000432
         1         1         2         2         7         7     -0.00000455
         1         1         2         2         7         8      0.00019954
         1         1         2         2         7         9      0.00000000
         1         1         2         2         7        10     -0.00003630
         1         1         2         2         7        11      0.00000000
         1         1         2         2         7        12     -0.00001020
         1         1         2         2         7        13      0.00003775
         1         1         2         2         8         1     -0.00057206
         1         1         2         2         8         2      0.00108722
         1         1         2         2         8         3     -0.00028032
         1         1         2         2         8         4     -0.00185026
         1         1         2         2         8         5      0.00000000
         1         1         2         2         8         6      0.00021095
         1         1         2         2         8         7      0.00019954
         1         1         2         2         8         8     -0.00572252
         1         1         2         2         8         9     -0.00000000
         1         1         2         2         8        10      0.00113127
         1         1         2         2         8        11     -0.00000000
         1         1         2         2         8        12      0.00046469
         1         1         2         2         8        13     -0.00095503
         1         1         2         2         9         1     -0.00000000
         1         1         2         2         9         2      0.00000000
         1         1         2         2         9         3     -0.00000000
         1         1         2         2         9         4      0.00000000
         1         1         2         2         9         5      0.00000110
         1         1         2         2         9         6      0.00000000
         1         1         2         2         9         7      0.00000000
         1         1         2         2         9         8     -0.00000000
         1         1         2         2         9         9      0.00000286
         1         1         2         2         9        10      0.00000000
         1         1         2         2         9        11     -0.00000184
         1         1         2         2         9        12      0.00000000
         1         1         2         2         9        13     -0.00000000
         1         1         2         2        10         1      0.00011168
         1         1         2         2        10         2     -0.00021121
         1         1         2         2        10         3      0.00004463
         1         1         2         2        10         4      0.00035921
         1         1         2         2        10         5     -0.00000000
         1         1         2         2        10         6     -0.00006309
         1         1         2         2        10         7     -0.00003630
         1         1         2         2        10         8      0.00113127
         1         1         2         2        10         9      0.00000000
         1         1         2         2        10        10     -0.00025501
         1         1         2         2        10        11      0.00000000
         1         1         2         2        10        12     -0.00013721
         1         1         2         2        10        13      0.00014055
         1         1         2         2        11         1     -0.00000000
         1         1         2         2        11         2      0.00000000
         1         1         2         2        11         3      0.00000000
         1         1         2         2        11         4     -0.00000000
         1         1         2         2        11         5      0.00000008
         1         1         2         2        11         6      0.00000000
         1         1         2         2        11         7      0.00000000
         1         1         2         2        11         8     -0.00000000
         1         1         2         2        11         9     -0.00000184
         1         1         2         2        11        10      0.00000000
         1         1         2         2        11        11     -0.00000658
         1         1         2         2        11        12      0.00000000
         1         1         2         2        11        13     -0.00000000
         1         1         2         2        12         1      0.00004157
         1         1         2         2        12         2     -0.00007939
         1         1         2         2        12         3     -0.00000163
         1         1         2         2        12         4      0.00014183
         1         1         2         2        12         5     -0.00000000
         1         1         2         2        12         6     -0.00006317
         1         1         2         2        12         7     -0.00001020
         1         1         2         2        12         8      0.00046469
         1         1         2         2        12         9      0.00000000
         1         1         2         2        12        10     -0.00013721
         1         1         2         2        12        11      0.00000000
         1         1         2         2        12        12     -0.00013864
         1         1         2         2        12        13     -0.00003280
         1         1         2         2        13         1     -0.00009710
         1         1         2         2        13         2      0.00018504
         1         1         2         2        13         3     -0.00007021
         1         1         2         2        13         4     -0.00030670
         1         1         2         2        13         5      0.00000000
         1         1         2         2        13         6     -0.00001400
         1         1         2         2        13         7      0.00003775
         1         1         2         2        13         8     -0.00095503
         1         1         2         2        13         9     -0.00000000
         1         1         2         2        13        10      0.00014055
         1         1         2         2        13        11     -0.00000000
         1         1         2         2        13        12     -0.00003280
         1         1         2         2        13        13     -0.00027736
         1         1         3         3         1         1      0.00003723
         1         1         3         3         1         2      0.00002397
         1         1         3         3         1         3      0.00000483
         1         1         3         3         1         4     -0.00018384
         1         1         3         3         1         5     -0.00000000
         1         1         3         3         1         6      0.00003809
         1         1         3         3         1         7      0.00002332
         1         1         3         3         1         8     -0.00057206
         1         1         3         3         1         9      0.00000000
         1         1         3         3         1        10      0.00011168
         1         1         3         3         1        11      0.00000000
         1         1         3         3         1        12      0.00004157
         1         1         3         3         1        13     -0.00009710
         1         1         3         3         2         1      0.00002397
         1         1         3         3         2         2     -0.00013142
         1         1         3         3         2         3      0.00002373
         1         1         3         3         2         4      0.00036432
         1         1         3         3         2         5      0.00000000
         1         1         3         3         2         6     -0.00005744
         1         1         3         3         2         7     -0.00004329
         1         1         3         3         2         8      0.00108722
         1         1         3         3         2         9     -0.00000000
         1         1         3         3         2        10     -0.00021121
         1         1         3         3         2        11     -0.00000000
         1         1         3         3         2        12     -0.00007939
         1         1         3         3         2        13      0.00018504
         1         1         3         3         3         1      0.00000483
         1         1         3         3         3         2      0.00002373
         1         1         3         3         3         3     -0.00000217
         1         1         3         3         3         4     -0.00009330
         1         1         3         3         3         5      0.00000000
         1         1         3         3         3         6      0.00001002
         1         1         3         3         3         7      0.00001328
         1         1         3         3         3         8     -0.00028032
         1         1         3         3         3         9      0.00000000
         1         1         3         3         3        10      0.00004463
         1         1         3         3         3        11     -0.00000000
         1         1         3         3         3        12     -0.00000163
         1         1         3         3         3        13     -0.00007021
         1         1         3         3         4         1     -0.00018384
         1         1         3         3         4         2      0.00036432
         1         1         3         3         4         3     -0.00009330
         1         1         3         3         4         4     -0.00065182
         1         1         3         3         4         5     -0.00000000
         1         1         3         3         4         6      0.00007375
         1         1         3         3         4         7      0.00007172
         1         1         3         3         4         8     -0.00185026
         1         1         3         3         4         9     -0.00000000
         1         1         3         3         4        10      0.00035921
         1         1         3         3         4        11      0.00000000
[...]
         3         2         7         3         2        12     -0.00009063
         3         2         7         3         2        13     -0.00006876
         3         2         7         3         3         1      0.00023102
         3         2         7         3         3         2     -0.00033303
         3         2         7         3         3         3      0.00010356
         3         2         7         3         3         4      0.00034971
         3         2         7         3         3         5     -0.00000000
         3         2         7         3         3         6      0.00004352
         3         2         7         3         3         7     -0.00002673
         3         2         7         3         3         8      0.00008105
         3         2         7         3         3         9      0.00000000
         3         2         7         3         3        10      0.00001841
         3         2         7         3         3        11      0.00000000
         3         2         7         3         3        12      0.00003431
         3         2         7         3         3        13      0.00002607
         3         2         7         3         4         1     -0.00090884
         3         2         7         3         4         2      0.00132237
         3         2         7         3         4         3     -0.00051456
         3         2         7         3         4         4     -0.00136878
         3         2         7         3         4         5      0.00000000
         3         2         7         3         4         6     -0.00035708
         3         2         7         3         4         7      0.00013321
         3         2         7         3         4         8     -0.00034194
         3         2         7         3         4         9     -0.00000000
         3         2         7         3         4        10     -0.00012408
         3         2         7         3         4        11      0.00000000
         3         2         7         3         4        12     -0.00021605
         3         2         7         3         4        13     -0.00017105
         3         2         7         3         5         1     -0.00000000
         3         2         7         3         5         2      0.00000000
         3         2         7         3         5         3     -0.00000000
         3         2         7         3         5         4     -0.00000000
         3         2         7         3         5         5     -0.00000995
         3         2         7         3         5         6      0.00000000
         3         2         7         3         5         7      0.00000000
         3         2         7         3         5         8     -0.00000000
         3         2         7         3         5         9     -0.00000359
         3         2         7         3         5        10      0.00000000
         3         2         7         3         5        11     -0.00001132
         3         2         7         3         5        12      0.00000000
         3         2         7         3         5        13     -0.00000000
         3         2         7         3         6         1     -0.00041583
         3         2         7         3         6         2      0.00060257
         3         2         7         3         6         3     -0.00018085
         3         2         7         3         6         4     -0.00065010
         3         2         7         3         6         5     -0.00000000
         3         2         7         3         6         6     -0.00006437
         3         2         7         3         6         7      0.00004888
         3         2         7         3         6         8     -0.00016961
         3         2         7         3         6         9      0.00000000
         3         2         7         3         6        10     -0.00002484
         3         2         7         3         6        11      0.00000000
         3         2         7         3         6        12     -0.00006021
         3         2         7         3         6        13     -0.00004896
         3         2         7         3         7         1     -0.00077622
         3         2         7         3         7         2      0.00115176
         3         2         7         3         7         3     -0.00054288
         3         2         7         3         7         4     -0.00122299
         3         2         7         3         7         5     -0.00000000
         3         2         7         3         7         6     -0.00049252
         3         2         7         3         7         7      0.00013544
         3         2         7         3         7         8     -0.00033515
         3         2         7         3         7         9      0.00000000
         3         2         7         3         7        10     -0.00019277
         3         2         7         3         7        11      0.00000000
         3         2         7         3         7        12     -0.00027313
         3         2         7         3         7        13     -0.00021749
         3         2         7         3         8         1     -0.00089599
         3         2         7         3         8         2      0.00131878
         3         2         7         3         8         3     -0.00045635
         3         2         7         3         8         4     -0.00148828
         3         2         7         3         8         5     -0.00000000
         3         2         7         3         8         6     -0.00022828
         3         2         7         3         8         7      0.00014581
         3         2         7         3         8         8     -0.00037515
         3         2         7         3         8         9     -0.00000000
         3         2         7         3         8        10     -0.00009054
         3         2         7         3         8        11      0.00000000
         3         2         7         3         8        12     -0.00022782
         3         2         7         3         8        13     -0.00016475
         3         2         7         3         9         1      0.00000000
         3         2         7         3         9         2     -0.00000000
         3         2         7         3         9         3     -0.00000000
         3         2         7         3         9         4      0.00000000
         3         2         7         3         9         5     -0.00004790
         3         2         7         3         9         6     -0.00000000
         3         2         7         3         9         7      0.00000000
         3         2         7         3         9         8      0.00000000
         3         2         7         3         9         9     -0.00003955
         3         2         7         3         9        10     -0.00000000
         3         2         7         3         9        11     -0.00010339
         3         2         7         3         9        12     -0.00000000
         3         2         7         3         9        13      0.00000000
         3         2         7         3        10         1      0.00000000
         3         2         7         3        10         2     -0.00000000
         3         2         7         3        10         3     -0.00000000
         3         2         7         3        10         4     -0.00000000
         3         2         7         3        10         5     -0.00001328
         3         2         7         3        10         6      0.00000000
         3         2         7         3        10         7      0.00000000
         3         2         7         3        10         8      0.00000000
         3         2         7         3        10         9     -0.00004301
         3         2         7         3        10        10     -0.00000000
         3         2         7         3        10        11     -0.00001601
         3         2         7         3        10        12     -0.00000000
         3         2         7         3        10        13      0.00000000
         3         2         7         3        11         1     -0.00049307
         3         2         7         3        11         2      0.00072716
         3         2         7         3        11         3     -0.00024495
         3         2         7         3        11         4     -0.00083233
         3         2         7         3        11         5     -0.00000000
         3         2         7         3        11         6     -0.00013582
         3         2         7         3        11         7      0.00005336
         3         2         7         3        11         8     -0.00019436
         3         2         7         3        11         9     -0.00000000
         3         2         7         3        11        10     -0.00011629
         3         2         7         3        11        11      0.00000000
         3         2         7         3        11        12     -0.00009828
         3         2         7         3        11        13     -0.00007897
         3         2         7         3        12         1     -0.00041978
         3         2         7         3        12         2      0.00066305
         3         2         7         3        12         3     -0.00046072
         3         2         7         3        12         4     -0.00075274
         3         2         7         3        12         5     -0.00000000
         3         2         7         3        12         6     -0.00063271
         3         2         7         3        12         7      0.00010352
         3         2         7         3        12         8     -0.00029286
         3         2         7         3        12         9     -0.00000000
         3         2         7         3        12        10     -0.00037776
         3         2         7         3        12        11      0.00000000
         3         2         7         3        12        12     -0.00038547
         3         2         7         3        12        13     -0.00030625
         3         2         7         3        13         1      0.00040999
         3         2         7         3        13         2     -0.00060957
         3         2         7         3        13         3      0.00024290
         3         2         7         3        13         4      0.00070398
         3         2         7         3        13         5      0.00000000
         3         2         7         3        13         6      0.00013813
         3         2         7         3        13         7     -0.00009510
         3         2         7         3        13         8      0.00013954
         3         2         7         3        13         9      0.00000000
         3         2         7         3        13        10     -0.00002132
         3         2         7         3        13        11     -0.00000000
         3         2         7         3        13        12      0.00015524
         3         2         7         3        13        13      0.00017093
         3         2         8         4         1         1     -0.00004266
         3         2         8         4         1         2     -0.00002500
         3         2         8         4         1         3     -0.00006399
         3         2         8         4         1         4     -0.00001187
         3         2         8         4         1         5     -0.00000000
         3         2         8         4         1         6     -0.00000202
         3         2         8         4         1         7     -0.00005026
         3         2         8         4         2         1      0.00006600
         3         2         8         4         2         2      0.00003449
         3         2         8         4         2         3      0.00009961
         3         2         8         4         2         4      0.00001560
         3         2         8         4         2         5      0.00000000
         3         2         8         4         2         6      0.00000483
         3         2         8         4         2         7      0.00007182
         3         2         8         4         3         1     -0.00011305
         3         2         8         4         3         2     -0.00007687
         3         2         8         4         3         3     -0.00016590
         3         2         8         4         3         4     -0.00004331
         3         2         8         4         3         5     -0.00000000
         3         2         8         4         3         6     -0.00000007
         3         2         8         4         3         7     -0.00012028
         3         2         8         4         4         1     -0.00000000
         3         2         8         4         4         2      0.00000000
         3         2         8         4         4         3     -0.00000000
         3         2         8         4         4         4      0.00000000
         3         2         8         4         4         5     -0.00003141
         3         2         8         4         4         6     -0.00000000
         3         2         8         4         4         7     -0.00000000
         3         2         8         4         5         1     -0.00001520
         3         2         8         4         5         2     -0.00005577
         3         2         8         4         5         3     -0.00001379
         3         2         8         4         5         4     -0.00010321
         3         2         8         4         5         5     -0.00000000
         3         2         8         4         5         6      0.00002725
         3         2         8         4         5         7     -0.00001217
         3         2         8         4         6         1     -0.00023605
         3         2         8         4         6         2     -0.00017315
         3         2         8         4         6         3     -0.00039909
         3         2         8         4         6         4     -0.00014686
         3         2         8         4         6         5     -0.00000000
         3         2         8         4         6         6     -0.00001756
         3         2         8         4         6         7     -0.00042172
         3         2         8         4         7         1      0.00004107
         3         2         8         4         7         2      0.00000286
         3         2         8         4         7         3      0.00007483
         3         2         8         4         7         4     -0.00005417
         3         2         8         4         7         5      0.00000000
         3         2         8         4         7         6     -0.00001296
         3         2         8         4         7         7      0.00009802


 RESULTS
 =======

  Reference energy                    -14.870854557970

  Correlated core orbitals:             1.1       1.5
  Orbital energies:                    -2.4467   -2.4463

  BCCD core-core energy                -0.033972928600
  BCCD core-valence energy             -0.003830598912
  BCCD valence correlation energy      -0.032022491362

  BCCD singlet pair energy             -0.068155400072
  BCCD triplet pair energy             -0.001670618802
  BCCD correlation energy              -0.069826018874

 !BCCD total energy                   -14.940680576844

 Approximate expectation values using Brueckner orbitals

 !BCCD(ref) STATE  1.1 Dipole momen     0.00000000     0.00000000     0.00000000
 Dipole moment /Debye                   0.00000000     0.00000000     0.00000000

 Brueckner orbitals saved on record           2150.2 (orbital set 1)
 Brueckner density (ref) saved on record      2150.2 (density set 1)

 Brueckner orbitals
 ==================

   Orb     Occ           Coefficients

                         1 1s      1 1s      1 1s      1 1s      1 1s      1 2pz     1 2pz     1 2pz     1 2pz     1 3d0  
                         1 3d2+    1 3d0     1 3d2+    1 3d0     1 3d2+    1 4f0     1 4f2+    1 4f0     1 4f2+    1 5g0  
                         1 5g4+    1 5g2+ 

   1.1    2.0000000    0.991544 -0.027930  0.006169  0.015487  0.007355 -0.077063  0.023063  0.041590  0.021886 -0.001386
                      -0.000000  0.002206  0.000000  0.001427  0.000000  0.000281  0.000000  0.001728 -0.000000  0.001067
                       0.000000 -0.000000

   2.1    2.0000000   -0.010777  1.002685 -0.053062 -0.154470 -0.083629  0.432776 -0.034734 -0.147522 -0.114148  0.002973
                      -0.000000  0.005291 -0.000000  0.007292 -0.000000  0.001174 -0.000000  0.000117 -0.000000  0.000081
                       0.000000  0.000000

                         1 1s      1 1s      1 1s      1 1s      1 1s      1 2pz     1 2pz     1 2pz     1 2pz     1 3d0  
                         1 3d2+    1 3d0     1 3d2+    1 3d0     1 3d2+    1 4f0     1 4f2+    1 4f0     1 4f2+    1 5g0  
                         1 5g4+    1 5g2+ 

   1.5    2.0000000    0.999388  0.011436  0.024536  0.014718 -0.002551 -0.089548  0.057092  0.056909  0.025279 -0.000776
                      -0.000000  0.014492  0.000000  0.004792  0.000000  0.002886  0.000000  0.003294 -0.000000  0.001185
                       0.000000  0.000000

 Timing summary (sec):

 STEP                 CPU(USER)    SYS     CPU(TOT)    WALL
 Transformation          0.56      0.11      0.67      1.48
 CCSD iterations         0.81      0.10      0.91      0.87

 Program statistics:

 Available memory in ccsd:                39999164
 Min. memory needed in ccsd:                 46689
 Max. memory used in ccsd:                   51202
 Max. memory used in cckext:                 74859 (34 integral passes)



 **********************************************************************************************************************************
 DATASETS  * FILE   NREC   LENGTH (MB)   RECORD NAMES
              1      20       39.33       500      700      610      900      950      970     1000      129      960     1100   
                                          VAR     GEOM    BASINP   SYMINP    ZMAT    AOBASIS   BASIS     P2S    ABASIS      S 
                                         1400     1410     1200     1210     1080     1600     1650     1300     1700     1380   
                                           T        V       H0       H01     AOSYM     SMH    MOLCAS    ERIS     OPER     JKOP   

              2       4        2.78       700     1000      520     2150   
                                         GEOM     BASIS   MCVARS    BCCD   

              3       5       14.82       500      610      700     1000     2100   
                                          VAR    BASINP    GEOM     BASIS     RHF  

 PROGRAMS   *        TOTAL      BCCD       INT   RESTART
 CPU TIMES  *         2.59      1.44      1.05      0.02
 REAL TIME  *         3.78 SEC
 DISK USED  *        86.27 MB
 **********************************************************************************************************************************

 Dump information in style XML to orbitals.xml                                                                    

 Variables will not be exported.
 Molecular orbitals read from record     2150.2  Type=BCCD/BRUECKNER (state 1.1)
 Occupation numbers read from record     2150.2  Type=BCCD/BRUECKNER (state 1.1)

 No orbital energies found for orbital set 0

 No redundancy group numbers found for orbital set 0

 **********************************************************************************************************************************

 BCCD/cc-pVQZ energy=    -14.940680576844

            BCCD
    -14.94068058
 **********************************************************************************************************************************
 Molpro calculation terminated
