
 Primary working directories    : /scr/yuriaoto/job.023692/molpro.4weR2yDXJf
 Secondary working directories  : /scr/yuriaoto/job.023692/molpro.4weR2yDXJf
 Wavefunction directory         : /scr/yuriaoto/job.023692/
 Main file repository           : /scr/yuriaoto/job.023692/molpro.4weR2yDXJf/

 id        : yuriaoto

 Nodes             nprocs
 t-rex.ufabc.int.br    1

 Using customized tuning parameters: mindgm=8; mindgv=16; mindgc=1; mindgr=1; noblas=0; minvec=7
 default implementation of scratch files=df  


 Variables initialized (933), CPU time= 0.01 sec
 ***,
 memory,40,m
 gprint,orbital,basis,civector
 gthresh,thrprint=0,printci=0.0
 file,3,wfu.dat,old
 
 {ccsd,CC_NORM_MAX=10.0
 nosingle
 thresh,printci=0.0,ENERGY=1.0E-10,COEFF=1.0E-12
 print,ref=1
 core,0
 wf,6,1,0;
 }
 
 Commands  initialized (760), CPU time= 0.00 sec, 617 directives.
 Default parameters read. Elapsed time= 0.03 sec

 Checking input...
 Passed
1


                                         ***  PROGRAM SYSTEM MOLPRO  ***
                                       Copyright, TTI GmbH Stuttgart, 2015
                                    Version 2019.2 linked Abr  7 2019 15:10:35


 **********************************************************************************************************************************
 LABEL *                                                                                 
  64 bit serial version                                                                  DATE: 05-Jun-20          TIME: 23:33:06  
 **********************************************************************************************************************************

 SHA1:             3a8a58c585c929645742fb5a1b7541a4ad1da699
 **********************************************************************************************************************************


 THRESHOLDS:

 ZERO    =  1.00D-12  ONEINT  =  1.00D-12  TWOINT  =  1.00D-11  PREFAC  =  1.00D-14  XXXXXX  =  1.00D-09  EORDER  =  1.00D-04
 ENERGY  =  0.00D+00  ETEST   =  0.00D+00  EDENS   =  0.00D+00  THRDEDEF=  1.00D-06  GRADIENT=  1.00D-02  STEP    =  1.00D-03
 ORBITAL =  1.00D-05  CIVEC   =  1.00D-05  COEFF   =  1.00D-04  PRINTCI =  0.00D+00  PUNCHCI =  9.90D+01  OPTGRAD =  3.00D-04
 OPTENERG=  1.00D-06  OPTSTEP =  3.00D-04  THRGRAD =  1.00D-10  COMPRESS=  1.00D-11  VARMIN  =  1.00D-07  VARMAX  =  1.00D-03
 THRDOUB =  0.00D+00  THRDIV  =  1.00D-05  THRRED  =  1.00D-07  THRPSP  =  1.00D+00  THRDC   =  1.00D-10  THRCS   =  1.00D-10
 THRNRM  =  1.00D-08  THREQ   =  0.00D+00  THRDE   =  1.00D+00  THRREF  =  1.00D-05  SPARFAC =  1.00D+00  THRDLP  =  1.00D-07
 THRDIA  =  1.00D-10  THRDLS  =  1.00D-07  THRGPS  =  0.00D+00  THRKEX  =  0.00D+00  THRDIS  =  2.00D-01  THRVAR  =  1.00D-10
 THRLOC  =  1.00D-06  THRGAP  =  1.00D-06  THRLOCT = -1.00D+00  THRGAPT = -1.00D+00  THRORB  =  1.00D-06  THRMLTP =  0.00D+00
 THRCPQCI=  1.00D-10  KEXTA   =  0.00D+00  THRCOARS=  0.00D+00  SYMTOL  =  1.00D-06  GRADTOL =  1.00D-06  THROVL  =  1.00D-08
 THRORTH =  1.00D-08  GRID    =  1.00D-06  GRIDMAX =  1.00D-03  DTMAX   =  0.00D+00  THROCCDE=  1.00D-01  THROCCDE=  1.00D-01
 THRPRINT=  0.00D+00


 Variable memory set to   40000000 words,  buffer space 



 Permanent file  3  wfu.dat  assigned.  Implementation=df    Size= 14.14 MB


 PROGRAM * RESTART 


 Reading variables from file 3

 _FNUC           =      0.00000000
 _BASIS          =    CC-PVQZ
 _NELEC          =      6.00000000
 _PROGRAM        =    RHF-SCF
 _DMX_SCF        =      0.00000000
 _DMY_SCF        =      0.00000000
 _DMZ_SCF        =      0.00000000
 _HOMO           =      2.10000000
 _EHOMO          =     -0.18246531
 _LUMO           =      2.50000000
 _ELUMO          =      0.00555584
 _ENERGY         =    -14.87127592
 _ENERGY_METHOD  =    RHF
 _ENERGY_BASIS   =    cc-pVQZ
 _ENUC           =      1.80000000
 _EPS1(1:17)     =     -2.45275542    -0.18246531     0.03118128     0.07675564     0.10329663     0.17513734
                        0.25175330     0.28508831     0.35792933     0.45872422     0.56018831     0.59918038
                        0.62755650     1.11239813     1.15386160     1.19142153     1.32188143
 _EPS2(1:13)     =      0.02433195     0.09353741     0.21068870     0.32226550     0.42191244     0.54628859
                        0.59819740     1.10083269     1.15221110     1.20763857     1.21042280     1.40783887
                        1.71444622
 _EPS3(1:13)     =      0.02433195     0.09353741     0.21068870     0.32226550     0.42191244     0.54628859
                        0.59819740     1.10083269     1.15221110     1.20763857     1.21042280     1.40783887
                        1.71444622
 _EPS4(1:7)      =      0.17513734     0.45872422     0.56018831     1.15386160     1.19142153     1.33151704
                        1.47724476
 _EPS5(1:16)     =     -2.45238917     0.00555584     0.05165406     0.11717968     0.16988016     0.22773801
                        0.28045093     0.41754488     0.49749500     0.57413233     0.61243569     0.63567405
                        0.88007748     1.26225432     1.33801999     1.36959713
 _EPS6(1:13)     =      0.04825428     0.13557655     0.27933523     0.33487951     0.49486051     0.59572254
                        0.76334313     1.19733327     1.25823163     1.41087078     1.41960646     1.59670947
                        2.17132043
 _EPS7(1:13)     =      0.04825428     0.13557655     0.27933523     0.33487951     0.49486051     0.59572254
                        0.76334313     1.19733327     1.25823163     1.41087078     1.41960646     1.59670947
                        2.17132043
 _EPS8(1:7)      =      0.22773801     0.57413233     0.63567405     1.26225432     1.33801999     1.49625433
                        1.70967926
 _IPROC_MPP      =      0.00000000
 _IPROC_MPPX     =      0.00000000
 _ORBITAL        =   2100.30000000
 _STATUS         =      1.00000000
 _DATE           =    10-Feb-20
 _LASTORB        =    RHF
 _OUTPUT         =    /scr/yuriaoto/job.022758/RHF.xml
 _PGROUP         =    D2h 
 _TIME           =    10:56:03
 R               =      5.00000000

 Geometry written to block  1 of record 700


 **********************************************************************************************************************************
 DATASETS  * FILE   NREC   LENGTH (MB)   RECORD NAMES
              3       5       14.82       500      610      700     1000     2100   
                                          VAR    BASINP    GEOM     BASIS     RHF  

 PROGRAMS   *        TOTAL   RESTART
 CPU TIMES  *         0.09      0.02
 REAL TIME  *         0.12 SEC
 DISK USED  *        26.89 MB
 **********************************************************************************************************************************


 Recomputing integrals since basis changed


 Using spherical harmonics

 Library entry LI     S cc-pVQZ              selected for orbital group  1
 Library entry LI     P cc-pVQZ              selected for orbital group  1
 Library entry LI     D cc-pVQZ              selected for orbital group  1
 Library entry LI     F cc-pVQZ              selected for orbital group  1
 Library entry LI     G cc-pVQZ              selected for orbital group  1


 PROGRAM * SEWARD (Integral evaluation for generally contracted gaussian basis sets)     Author: Roland Lindh, 1990

 Geometry written to block  1 of record 700

 Orientation using atomic masses  
 Molecule type: Linear
 User-specified symmetry elements: X,Y,Z
 Symmetry elements: X,Y,Z
 Rotational constants:      20.8009354     20.8009354      0.0000000 GHz  (calculated with average atomic masses)

 Point group  D2h 



 ATOMIC COORDINATES

 NR  ATOM    CHARGE       X              Y              Z

   1  LI1     3.00    0.000000000    0.000000000   -2.500000000
   2  LI2     3.00    0.000000000    0.000000000    2.500000000

 Bond lengths in Bohr (Angstrom)

 1-2  5.000000000
     ( 2.645886055)


 BASIS DATA

   Nr Sym  Nuc  Type         Exponents   Contraction coefficients

    1.1 Ag    1  1s        6601.000000     0.000117   -0.000018    0.000000    0.000000    0.000000
    2.1 Ag    2  1s         989.700000     0.000911   -0.000142    0.000000    0.000000    0.000000
    3.1 Ag                  225.700000     0.004728   -0.000741    0.000000    0.000000    0.000000
    4.1 Ag                   64.290000     0.019197   -0.003020    0.000000    0.000000    0.000000
    5.1 Ag                   21.180000     0.063047   -0.010123    0.000000    0.000000    0.000000
                              7.724000     0.163208   -0.027094    0.000000    0.000000    0.000000
                              3.003000     0.314827   -0.057359    0.000000    0.000000    0.000000
                              1.212000     0.393936   -0.093895    0.000000    0.000000    0.000000
                              0.493000     0.196918   -0.121091    0.000000    0.000000    0.000000
                              0.095150     0.009997    0.276608    1.000000    0.000000    0.000000
                              0.047910    -0.005402    0.549548    0.000000    1.000000    0.000000
                              0.022200     0.001704    0.277385    0.000000    0.000000    1.000000
    6.1 Ag    1  2pz          6.250000     0.003388    0.000000    0.000000    0.000000
    7.1 Ag    2 -2pz          1.370000     0.019316    0.000000    0.000000    0.000000
    8.1 Ag                    0.367200     0.079104    0.000000    0.000000    0.000000
    9.1 Ag                    0.119200     0.274095    1.000000    0.000000    0.000000
                              0.044740     0.519488    0.000000    1.000000    0.000000
                              0.017950     0.284423    0.000000    0.000000    1.000000
   10.1 Ag    1  3d0          0.335200     1.000000
              2  3d0   
   11.1 Ag    1  3d2+         0.335200     1.000000
              2  3d2+  
   12.1 Ag    1  3d0          0.148200     1.000000
              2  3d0   
   13.1 Ag    1  3d2+         0.148200     1.000000
              2  3d2+  
   14.1 Ag    1  3d0          0.065600     1.000000
              2  3d0   
   15.1 Ag    1  3d2+         0.065600     1.000000
              2  3d2+  
   16.1 Ag    1  4f0          0.228000     1.000000
              2 -4f0   
   17.1 Ag    1  4f2+         0.228000     1.000000
              2 -4f2+  
   18.1 Ag    1  4f0          0.113500     1.000000
              2 -4f0   
   19.1 Ag    1  4f2+         0.113500     1.000000
              2 -4f2+  
   20.1 Ag    1  5g0          0.231900     1.000000
              2  5g0   
   21.1 Ag    1  5g4+         0.231900     1.000000
              2  5g4+  
   22.1 Ag    1  5g2+         0.231900     1.000000
              2  5g2+  
    1.2 B3u   1  2px          6.250000     0.003388    0.000000    0.000000    0.000000
    2.2 B3u   2  2px          1.370000     0.019316    0.000000    0.000000    0.000000
    3.2 B3u                   0.367200     0.079104    0.000000    0.000000    0.000000
    4.2 B3u                   0.119200     0.274095    1.000000    0.000000    0.000000
                              0.044740     0.519488    0.000000    1.000000    0.000000
                              0.017950     0.284423    0.000000    0.000000    1.000000
    5.2 B3u   1  3d1+         0.335200     1.000000
              2 -3d1+  
    6.2 B3u   1  3d1+         0.148200     1.000000
              2 -3d1+  
    7.2 B3u   1  3d1+         0.065600     1.000000
              2 -3d1+  
    8.2 B3u   1  4f1+         0.228000     1.000000
              2  4f1+  
    9.2 B3u   1  4f3+         0.228000     1.000000
              2  4f3+  
   10.2 B3u   1  4f1+         0.113500     1.000000
              2  4f1+  
   11.2 B3u   1  4f3+         0.113500     1.000000
              2  4f3+  
   12.2 B3u   1  5g1+         0.231900     1.000000
              2 -5g1+  
   13.2 B3u   1  5g3+         0.231900     1.000000
              2 -5g3+  
    1.3 B2u   1  2py          6.250000     0.003388    0.000000    0.000000    0.000000
    2.3 B2u   2  2py          1.370000     0.019316    0.000000    0.000000    0.000000
    3.3 B2u                   0.367200     0.079104    0.000000    0.000000    0.000000
    4.3 B2u                   0.119200     0.274095    1.000000    0.000000    0.000000
                              0.044740     0.519488    0.000000    1.000000    0.000000
                              0.017950     0.284423    0.000000    0.000000    1.000000
    5.3 B2u   1  3d1-         0.335200     1.000000
              2 -3d1-  
    6.3 B2u   1  3d1-         0.148200     1.000000
              2 -3d1-  
    7.3 B2u   1  3d1-         0.065600     1.000000
              2 -3d1-  
    8.3 B2u   1  4f1-         0.228000     1.000000
              2  4f1-  
    9.3 B2u   1  4f3-         0.228000     1.000000
              2  4f3-  
   10.3 B2u   1  4f1-         0.113500     1.000000
              2  4f1-  
   11.3 B2u   1  4f3-         0.113500     1.000000
              2  4f3-  
   12.3 B2u   1  5g1-         0.231900     1.000000
              2 -5g1-  
   13.3 B2u   1  5g3-         0.231900     1.000000
              2 -5g3-  
    1.4 B1g   1  3d2-         0.335200     1.000000
              2  3d2-  
    2.4 B1g   1  3d2-         0.148200     1.000000
              2  3d2-  
    3.4 B1g   1  3d2-         0.065600     1.000000
              2  3d2-  
    4.4 B1g   1  4f2-         0.228000     1.000000
              2 -4f2-  
    5.4 B1g   1  4f2-         0.113500     1.000000
              2 -4f2-  
    6.4 B1g   1  5g2-         0.231900     1.000000
              2  5g2-  
    7.4 B1g   1  5g4-         0.231900     1.000000
              2  5g4-  
    1.5 B1u   1  1s        6601.000000     0.000117   -0.000018    0.000000    0.000000    0.000000
    2.5 B1u   2 -1s         989.700000     0.000911   -0.000142    0.000000    0.000000    0.000000
    3.5 B1u                 225.700000     0.004728   -0.000741    0.000000    0.000000    0.000000
    4.5 B1u                  64.290000     0.019197   -0.003020    0.000000    0.000000    0.000000
    5.5 B1u                  21.180000     0.063047   -0.010123    0.000000    0.000000    0.000000
                              7.724000     0.163208   -0.027094    0.000000    0.000000    0.000000
                              3.003000     0.314827   -0.057359    0.000000    0.000000    0.000000
                              1.212000     0.393936   -0.093895    0.000000    0.000000    0.000000
                              0.493000     0.196918   -0.121091    0.000000    0.000000    0.000000
                              0.095150     0.009997    0.276608    1.000000    0.000000    0.000000
                              0.047910    -0.005402    0.549548    0.000000    1.000000    0.000000
                              0.022200     0.001704    0.277385    0.000000    0.000000    1.000000
    6.5 B1u   1  2pz          6.250000     0.003388    0.000000    0.000000    0.000000
    7.5 B1u   2  2pz          1.370000     0.019316    0.000000    0.000000    0.000000
    8.5 B1u                   0.367200     0.079104    0.000000    0.000000    0.000000
    9.5 B1u                   0.119200     0.274095    1.000000    0.000000    0.000000
                              0.044740     0.519488    0.000000    1.000000    0.000000
                              0.017950     0.284423    0.000000    0.000000    1.000000
   10.5 B1u   1  3d0          0.335200     1.000000
              2 -3d0   
   11.5 B1u   1  3d2+         0.335200     1.000000
              2 -3d2+  
   12.5 B1u   1  3d0          0.148200     1.000000
              2 -3d0   
   13.5 B1u   1  3d2+         0.148200     1.000000
              2 -3d2+  
   14.5 B1u   1  3d0          0.065600     1.000000
              2 -3d0   
   15.5 B1u   1  3d2+         0.065600     1.000000
              2 -3d2+  
   16.5 B1u   1  4f0          0.228000     1.000000
              2  4f0   
   17.5 B1u   1  4f2+         0.228000     1.000000
              2  4f2+  
   18.5 B1u   1  4f0          0.113500     1.000000
              2  4f0   
   19.5 B1u   1  4f2+         0.113500     1.000000
              2  4f2+  
   20.5 B1u   1  5g0          0.231900     1.000000
              2 -5g0   
   21.5 B1u   1  5g4+         0.231900     1.000000
              2 -5g4+  
   22.5 B1u   1  5g2+         0.231900     1.000000
              2 -5g2+  
    1.6 B2g   1  2px          6.250000     0.003388    0.000000    0.000000    0.000000
    2.6 B2g   2 -2px          1.370000     0.019316    0.000000    0.000000    0.000000
    3.6 B2g                   0.367200     0.079104    0.000000    0.000000    0.000000
    4.6 B2g                   0.119200     0.274095    1.000000    0.000000    0.000000
                              0.044740     0.519488    0.000000    1.000000    0.000000
                              0.017950     0.284423    0.000000    0.000000    1.000000
    5.6 B2g   1  3d1+         0.335200     1.000000
              2  3d1+  
    6.6 B2g   1  3d1+         0.148200     1.000000
              2  3d1+  
    7.6 B2g   1  3d1+         0.065600     1.000000
              2  3d1+  
    8.6 B2g   1  4f1+         0.228000     1.000000
              2 -4f1+  
    9.6 B2g   1  4f3+         0.228000     1.000000
              2 -4f3+  
   10.6 B2g   1  4f1+         0.113500     1.000000
              2 -4f1+  
   11.6 B2g   1  4f3+         0.113500     1.000000
              2 -4f3+  
   12.6 B2g   1  5g1+         0.231900     1.000000
              2  5g1+  
   13.6 B2g   1  5g3+         0.231900     1.000000
              2  5g3+  
    1.7 B3g   1  2py          6.250000     0.003388    0.000000    0.000000    0.000000
    2.7 B3g   2 -2py          1.370000     0.019316    0.000000    0.000000    0.000000
    3.7 B3g                   0.367200     0.079104    0.000000    0.000000    0.000000
    4.7 B3g                   0.119200     0.274095    1.000000    0.000000    0.000000
                              0.044740     0.519488    0.000000    1.000000    0.000000
                              0.017950     0.284423    0.000000    0.000000    1.000000
    5.7 B3g   1  3d1-         0.335200     1.000000
              2  3d1-  
    6.7 B3g   1  3d1-         0.148200     1.000000
              2  3d1-  
    7.7 B3g   1  3d1-         0.065600     1.000000
              2  3d1-  
    8.7 B3g   1  4f1-         0.228000     1.000000
              2 -4f1-  
    9.7 B3g   1  4f3-         0.228000     1.000000
              2 -4f3-  
   10.7 B3g   1  4f1-         0.113500     1.000000
              2 -4f1-  
   11.7 B3g   1  4f3-         0.113500     1.000000
              2 -4f3-  
   12.7 B3g   1  5g1-         0.231900     1.000000
              2  5g1-  
   13.7 B3g   1  5g3-         0.231900     1.000000
              2  5g3-  
    1.8 Au    1  3d2-         0.335200     1.000000
              2 -3d2-  
    2.8 Au    1  3d2-         0.148200     1.000000
              2 -3d2-  
    3.8 Au    1  3d2-         0.065600     1.000000
              2 -3d2-  
    4.8 Au    1  4f2-         0.228000     1.000000
              2  4f2-  
    5.8 Au    1  4f2-         0.113500     1.000000
              2  4f2-  
    6.8 Au    1  5g2-         0.231900     1.000000
              2 -5g2-  
    7.8 Au    1  5g4-         0.231900     1.000000
              2 -5g4-  

 NUCLEAR CHARGE:                    6
 NUMBER OF PRIMITIVE AOS:         166
 NUMBER OF SYMMETRY AOS:          136
 NUMBER OF CONTRACTIONS:          110   (   22Ag  +   13B3u +   13B2u +    7B1g +   22B1u +   13B2g +   13B3g +    7Au  )
 NUMBER OF CORE ORBITALS:           2   (    1Ag  +    0B3u +    0B2u +    0B1g +    1B1u +    0B2g +    0B3g +    0Au  )
 NUMBER OF VALENCE ORBITALS:        8   (    2Ag  +    1B3u +    1B2u +    0B1g +    2B1u +    1B2g +    1B3g +    0Au  )


 NUCLEAR REPULSION ENERGY    1.80000000

 EXTRA SYMMETRY OF AOS IN SYMMETRY 1:   1 1 1 1 1 1 1 1 1 1   2 1 2 1 2 1 2 1 2 1   3 2
 EXTRA SYMMETRY OF AOS IN SYMMETRY 2:   1 1 1 1 1 1 1 1 2 1   2 1 2
 EXTRA SYMMETRY OF AOS IN SYMMETRY 3:   1 1 1 1 1 1 1 1 2 1   2 1 2
 EXTRA SYMMETRY OF AOS IN SYMMETRY 4:   1 1 1 1 1 1 2
 EXTRA SYMMETRY OF AOS IN SYMMETRY 5:   1 1 1 1 1 1 1 1 1 1   2 1 2 1 2 1 2 1 2 1   3 2
 EXTRA SYMMETRY OF AOS IN SYMMETRY 6:   1 1 1 1 1 1 1 1 2 1   2 1 2
 EXTRA SYMMETRY OF AOS IN SYMMETRY 7:   1 1 1 1 1 1 1 1 2 1   2 1 2
 EXTRA SYMMETRY OF AOS IN SYMMETRY 8:   1 1 1 1 1 1 2

 Eigenvalues of metric

         1 0.994E-03 0.132E-02 0.325E-02 0.199E-01 0.547E-01 0.104E+00 0.149E+00 0.239E+00
         2 0.291E-02 0.573E-01 0.850E-01 0.172E+00 0.265E+00 0.482E+00 0.871E+00 0.113E+01
         3 0.291E-02 0.573E-01 0.850E-01 0.172E+00 0.265E+00 0.482E+00 0.871E+00 0.113E+01
         4 0.104E+00 0.239E+00 0.742E+00 0.106E+01 0.121E+01 0.202E+01 0.331E+01
         5 0.207E-03 0.332E-03 0.104E-02 0.290E-02 0.748E-02 0.380E-01 0.611E-01 0.743E-01
         6 0.112E-02 0.647E-02 0.162E-01 0.619E-01 0.145E+00 0.190E+00 0.218E+00 0.538E+00
         7 0.112E-02 0.647E-02 0.162E-01 0.619E-01 0.145E+00 0.190E+00 0.218E+00 0.538E+00
         8 0.611E-01 0.743E-01 0.274E+00 0.541E+00 0.945E+00 0.128E+01 0.214E+01


 Contracted 2-electron integrals neglected if value below      1.0D-11
 AO integral compression algorithm  1   Integral accuracy      1.0D-11

     15.729 MB (compressed) written to integral file ( 45.3%)


 NUMBER OF SORTED TWO-ELECTRON INTEGRALS:    2445884.     BUFFER LENGTH:  32768
 NUMBER OF SEGMENTS:   1  SEGMENT LENGTH:    2445884      RECORD LENGTH: 524288

 Memory used in sort:       3.00 MW

 SORT1 READ     4396992. AND WROTE     1896858. INTEGRALS IN      6 RECORDS. CPU TIME:     0.11 SEC, REAL TIME:     0.14 SEC
 SORT2 READ     1896858. AND WROTE     2445884. INTEGRALS IN     60 RECORDS. CPU TIME:     0.17 SEC, REAL TIME:     0.20 SEC

 FILE SIZES:   FILE 1:    46.0 MBYTE,  FILE 4:    25.2 MBYTE,   TOTAL:     71.2 MBYTE

 OPERATOR DM      FOR CENTER  0  COORDINATES:    0.000000    0.000000    0.000000


 **********************************************************************************************************************************
 DATASETS  * FILE   NREC   LENGTH (MB)   RECORD NAMES
              1      19       39.16       500      700      610      900      950      970     1000      129      960     1100   
                                          VAR     GEOM    BASINP   SYMINP    ZMAT    AOBASIS   BASIS     P2S    ABASIS      S 
                                         1400     1410     1200     1210     1080     1600     1650     1300     1700   
                                           T        V       H0       H01     AOSYM     SMH    MOLCAS    ERIS     OPER   

              3       5       14.82       500      610      700     1000     2100   
                                          VAR    BASINP    GEOM     BASIS     RHF  

 PROGRAMS   *        TOTAL       INT   RESTART
 CPU TIMES  *         1.15      1.06      0.02
 REAL TIME  *         1.33 SEC
 DISK USED  *        86.27 MB
 **********************************************************************************************************************************


 PROGRAM * CCSD (Closed-shell coupled cluster)     Authors: C. Hampel, H.-J. Werner, 1991, M. Deegan, P.J. Knowles, 1992


 Input parameters for THRESH:

 ENERGY   =    1.00D-10
 COEFF    =    1.00D-12
 PRINTCI  =    0.000000
 THRPRINT =    0.000000

 Convergence thresholds:  THRVAR = 1.00D-24  THRDEN = 1.00D-10

 Number of closed-shell orbitals:   3 (   2   0   0   0   1   0   0   0 )
 Number of external orbitals:     107 (  20  13  13   7  21  13  13   7 )

 Molecular orbitals read from record     2100.3  Type=RHF/CANONICAL (state 1.1)

 Number of N-1 electron functions:               0
 Number of N-2 electron functions:               6
 Number of singly external CSFs:                 0
 Number of doubly external CSFs:              7426
 Total number of CSFs:                        7427

 Length of J-op  integral file:               0.00 MB
 Length of K-op  integral file:               0.15 MB
 Length of 3-ext integral record:             0.00 MB

 Integral transformation finished. Total CPU:   0.02 sec, npass=  1  Memory used:   0.26 MW

 Reference energy:                    -14.87127592

 MP2 singlet pair energy:              -0.05337723
 MP2 triplet pair energy:              -0.00151225
 MP2 correlation energy:               -0.05488948
 MP2 total energy:                    -14.92616541

 SCS-MP2 correlation energy:           -0.06499364   (PS=  1.200000  PT=  0.333333)
 SCS-MP2 total energy:                -14.93626956

 ITER.      SQ.NORM     CORR.ENERGY   TOTAL ENERGY   ENERGY CHANGE        DEN1      VAR(S)    VAR(P)  DIIS     TIME  TIME/IT
   1      1.05326987    -0.06570149   -14.93697741    -0.01081200    -0.00674785  0.00D+00  0.24D-02  1  1     0.04     0.02
   2      1.07040873    -0.06802015   -14.93929607    -0.00231866    -0.00368278  0.00D+00  0.85D-03  2  2     0.06     0.02
   3      1.08958424    -0.06893398   -14.94020990    -0.00091383    -0.00249002  0.00D+00  0.13D-03  3  3     0.08     0.02
   4      1.10027861    -0.06900228   -14.94027821    -0.00006830    -0.00106981  0.00D+00  0.15D-04  4  4     0.09     0.02
   5      1.10204981    -0.06899699   -14.94027292     0.00000529    -0.00008055  0.00D+00  0.20D-05  5  5     0.11     0.02
   6      1.10270161    -0.06901165   -14.94028757    -0.00001465    -0.00004164  0.00D+00  0.38D-06  6  6     0.12     0.02
   7      1.10281724    -0.06901002   -14.94028594     0.00000163    -0.00000547  0.00D+00  0.63D-07  6  1     0.14     0.02
   8      1.10285412    -0.06900871   -14.94028463     0.00000131    -0.00000246  0.00D+00  0.89D-08  6  2     0.15     0.02
   9      1.10285284    -0.06900914   -14.94028506    -0.00000043     0.00000058  0.00D+00  0.11D-08  6  3     0.16     0.02
  10      1.10285099    -0.06900915   -14.94028507    -0.00000001     0.00000021  0.00D+00  0.14D-09  6  4     0.18     0.02
  11      1.10285047    -0.06900916   -14.94028508    -0.00000001     0.00000002  0.00D+00  0.20D-10  6  5     0.19     0.02
  12      1.10285019    -0.06900916   -14.94028508     0.00000000     0.00000001  0.00D+00  0.34D-11  6  6     0.21     0.02
  13      1.10284971    -0.06900916   -14.94028508    -0.00000000     0.00000004  0.00D+00  0.73D-12  6  2     0.22     0.02
  14      1.10284942    -0.06900916   -14.94028509    -0.00000000     0.00000002  0.00D+00  0.16D-12  6  1     0.24     0.02
  15      1.10284926    -0.06900916   -14.94028509    -0.00000000     0.00000001  0.00D+00  0.35D-13  6  3     0.25     0.02
  16      1.10284919    -0.06900917   -14.94028509    -0.00000000     0.00000001  0.00D+00  0.58D-14  6  4     0.26     0.02
  17      1.10284918    -0.06900917   -14.94028509    -0.00000000     0.00000000  0.00D+00  0.14D-14  6  5     0.28     0.02
  18      1.10284919    -0.06900917   -14.94028509     0.00000000    -0.00000000  0.00D+00  0.36D-15  6  6     0.29     0.02
  19      1.10284919    -0.06900917   -14.94028509     0.00000000    -0.00000000  0.00D+00  0.38D-16  6  1     0.30     0.02
  20      1.10284920    -0.06900917   -14.94028509     0.00000000    -0.00000000  0.00D+00  0.22D-17  6  2     0.32     0.02
  21      1.10284920    -0.06900917   -14.94028509     0.00000000    -0.00000000  0.00D+00  0.45D-18  6  3     0.33     0.02
  22      1.10284920    -0.06900917   -14.94028509     0.00000000    -0.00000000  0.00D+00  0.57D-19  6  4     0.34     0.02
  23      1.10284920    -0.06900917   -14.94028509     0.00000000    -0.00000000  0.00D+00  0.11D-19  6  2     0.36     0.02
  24      1.10284920    -0.06900917   -14.94028509     0.00000000    -0.00000000  0.00D+00  0.40D-21  6  5     0.37     0.02
  25      1.10284920    -0.06900917   -14.94028509     0.00000000    -0.00000000  0.00D+00  0.87D-22  6  6     0.39     0.02
  26      1.10284920    -0.06900917   -14.94028509     0.00000000    -0.00000000  0.00D+00  0.22D-22  6  1     0.40     0.02
  27      1.10284920    -0.06900917   -14.94028509    -0.00000000     0.00000000  0.00D+00  0.95D-23  6  3     0.42     0.02
  28      1.10284920    -0.06900917   -14.94028509     0.00000000     0.00000000  0.00D+00  0.56D-23  6  4     0.43     0.02
  29      1.10284920    -0.06900917   -14.94028509     0.00000000     0.00000000  0.00D+00  0.31D-23  6  2     0.44     0.02
  30      1.10284920    -0.06900917   -14.94028509    -0.00000000     0.00000000  0.00D+00  0.15D-23  6  5     0.46     0.02
  31      1.10284920    -0.06900917   -14.94028509    -0.00000000     0.00000000  0.00D+00  0.11D-23  6  3     0.47     0.02
  32      1.10284920    -0.06900917   -14.94028509    -0.00000000    -0.00000000  0.00D+00  0.10D-23  6  4     0.49     0.02
  33      1.10284920    -0.06900917   -14.94028509     0.00000000     0.00000000  0.00D+00  0.10D-23  6  1     0.50     0.02
  34      1.10284920    -0.06900917   -14.94028509    -0.00000000    -0.00000000  0.00D+00  0.92D-24  6  4     0.52     0.02


 Doubles amplitudes (print threshold =  0.000E+00):

         I         J         SYM. A    SYM. B    A         B      T(IJ, AB)

         1         1         1         1         1         1     -0.00006920
         1         1         1         1         1         2      0.00010765
         1         1         1         1         1         3     -0.00006761
         1         1         1         1         1         4     -0.00000000
         1         1         1         1         1         5     -0.00020754
         1         1         1         1         1         6      0.00004581
         1         1         1         1         1         7     -0.00023450
         1         1         1         1         1         8     -0.00000000
         1         1         1         1         1         9     -0.00000000
         1         1         1         1         1        10     -0.00013436
         1         1         1         1         1        11     -0.00011059
         1         1         1         1         1        12     -0.00042396
         1         1         1         1         1        13      0.00000000
         1         1         1         1         1        14      0.00000000
         1         1         1         1         1        15      0.00006308
         1         1         1         1         1        16     -0.00000000
         1         1         1         1         1        17     -0.00019730
         1         1         1         1         1        18     -0.00000000
         1         1         1         1         1        19     -0.00020348
         1         1         1         1         1        20      0.00081527
         1         1         1         1         2         1      0.00010765
         1         1         1         1         2         2     -0.00022595
         1         1         1         1         2         3     -0.00003112
         1         1         1         1         2         4      0.00000000
         1         1         1         1         2         5      0.00026533
         1         1         1         1         2         6      0.00012033
         1         1         1         1         2         7      0.00064976
         1         1         1         1         2         8      0.00000000
         1         1         1         1         2         9     -0.00000000
         1         1         1         1         2        10      0.00007408
         1         1         1         1         2        11      0.00004994
         1         1         1         1         2        12      0.00039720
         1         1         1         1         2        13     -0.00000000
         1         1         1         1         2        14      0.00000000
         1         1         1         1         2        15     -0.00000122
         1         1         1         1         2        16      0.00000000
         1         1         1         1         2        17      0.00005693
         1         1         1         1         2        18      0.00000000
         1         1         1         1         2        19     -0.00023110
         1         1         1         1         2        20     -0.00171473
         1         1         1         1         3         1     -0.00006761
         1         1         1         1         3         2     -0.00003112
         1         1         1         1         3         3     -0.00030591
         1         1         1         1         3         4      0.00000000
         1         1         1         1         3         5     -0.00021793
         1         1         1         1         3         6      0.00036933
         1         1         1         1         3         7      0.00040102
         1         1         1         1         3         8      0.00000000
         1         1         1         1         3         9     -0.00000000
         1         1         1         1         3        10     -0.00030304
         1         1         1         1         3        11     -0.00027563
         1         1         1         1         3        12     -0.00066819
         1         1         1         1         3        13     -0.00000000
         1         1         1         1         3        14      0.00000000
         1         1         1         1         3        15      0.00020340
         1         1         1         1         3        16      0.00000000
         1         1         1         1         3        17     -0.00054413
         1         1         1         1         3        18      0.00000000
         1         1         1         1         3        19     -0.00108472
         1         1         1         1         3        20     -0.00041712
         1         1         1         1         4         1     -0.00000000
         1         1         1         1         4         2      0.00000000
         1         1         1         1         4         3      0.00000000
         1         1         1         1         4         4      0.00000475
         1         1         1         1         4         5      0.00000000
         1         1         1         1         4         6      0.00000000
         1         1         1         1         4         7     -0.00000000
         1         1         1         1         4         8      0.00000185
         1         1         1         1         4         9     -0.00000421
         1         1         1         1         4        10      0.00000000
         1         1         1         1         4        11      0.00000000
         1         1         1         1         4        12      0.00000000
         1         1         1         1         4        13     -0.00000012
         1         1         1         1         4        14      0.00000000
         1         1         1         1         4        15     -0.00000000
         1         1         1         1         4        16     -0.00000230
         1         1         1         1         4        17     -0.00000000
         1         1         1         1         4        18     -0.00002743
         1         1         1         1         4        19      0.00000000
         1         1         1         1         4        20     -0.00000000
         1         1         1         1         5         1     -0.00020754
         1         1         1         1         5         2      0.00026533
         1         1         1         1         5         3     -0.00021793
         1         1         1         1         5         4      0.00000000
         1         1         1         1         5         5     -0.00048471
         1         1         1         1         5         6      0.00013932
         1         1         1         1         5         7     -0.00044603
         1         1         1         1         5         8      0.00000000
         1         1         1         1         5         9     -0.00000000
         1         1         1         1         5        10     -0.00030077
         1         1         1         1         5        11     -0.00027077
         1         1         1         1         5        12     -0.00092442
         1         1         1         1         5        13     -0.00000000
         1         1         1         1         5        14      0.00000000
         1         1         1         1         5        15      0.00012851
         1         1         1         1         5        16      0.00000000
         1         1         1         1         5        17     -0.00044987
         1         1         1         1         5        18      0.00000000
         1         1         1         1         5        19     -0.00055855
         1         1         1         1         5        20      0.00162227
         1         1         1         1         6         1      0.00004581
         1         1         1         1         6         2      0.00012033
         1         1         1         1         6         3      0.00036933
         1         1         1         1         6         4      0.00000000
         1         1         1         1         6         5      0.00013932
         1         1         1         1         6         6     -0.00046067
         1         1         1         1         6         7     -0.00071735
         1         1         1         1         6         8     -0.00000000
         1         1         1         1         6         9      0.00000000
         1         1         1         1         6        10      0.00030334
         1         1         1         1         6        11      0.00028876
         1         1         1         1         6        12      0.00058016
         1         1         1         1         6        13      0.00000000
         1         1         1         1         6        14      0.00000000
         1         1         1         1         6        15     -0.00022592
         1         1         1         1         6        16     -0.00000000
         1         1         1         1         6        17      0.00058846
         1         1         1         1         6        18     -0.00000000
         1         1         1         1         6        19      0.00131964
         1         1         1         1         6        20      0.00119995
         1         1         1         1         7         1     -0.00023450
         1         1         1         1         7         2      0.00064976
         1         1         1         1         7         3      0.00040102
         1         1         1         1         7         4     -0.00000000
         1         1         1         1         7         5     -0.00044603
         1         1         1         1         7         6     -0.00071735
         1         1         1         1         7         7     -0.00208998
         1         1         1         1         7         8      0.00000000
         1         1         1         1         7         9     -0.00000000
         1         1         1         1         7        10      0.00016312
         1         1         1         1         7        11      0.00018836
         1         1         1         1         7        12     -0.00021382
         1         1         1         1         7        13     -0.00000000
         1         1         1         1         7        14      0.00000000
         1         1         1         1         7        15     -0.00023268
         1         1         1         1         7        16      0.00000000
         1         1         1         1         7        17      0.00048415
         1         1         1         1         7        18      0.00000000
         1         1         1         1         7        19      0.00182771
         1         1         1         1         7        20      0.00476066
         1         1         1         1         8         1     -0.00000000
         1         1         1         1         8         2      0.00000000
         1         1         1         1         8         3      0.00000000
         1         1         1         1         8         4      0.00000185
         1         1         1         1         8         5      0.00000000
         1         1         1         1         8         6     -0.00000000
         1         1         1         1         8         7      0.00000000
         1         1         1         1         8         8      0.00000527
         1         1         1         1         8         9     -0.00000172
         1         1         1         1         8        10     -0.00000000
         1         1         1         1         8        11     -0.00000000
         1         1         1         1         8        12      0.00000000
         1         1         1         1         8        13      0.00000048
         1         1         1         1         8        14      0.00000000
         1         1         1         1         8        15      0.00000000
         1         1         1         1         8        16     -0.00000030
         1         1         1         1         8        17      0.00000000
         1         1         1         1         8        18     -0.00001470
         1         1         1         1         8        19      0.00000000
         1         1         1         1         8        20      0.00000000
         1         1         1         1         9         1     -0.00000000
         1         1         1         1         9         2     -0.00000000
         1         1         1         1         9         3     -0.00000000
         1         1         1         1         9         4     -0.00000421
         1         1         1         1         9         5     -0.00000000
         1         1         1         1         9         6      0.00000000
         1         1         1         1         9         7     -0.00000000
         1         1         1         1         9         8     -0.00000172
         1         1         1         1         9         9     -0.00000696
         1         1         1         1         9        10      0.00000000
         1         1         1         1         9        11      0.00000000
         1         1         1         1         9        12     -0.00000000
         1         1         1         1         9        13     -0.00000112
         1         1         1         1         9        14      0.00000000
         1         1         1         1         9        15      0.00000000
         1         1         1         1         9        16     -0.00000469
         1         1         1         1         9        17     -0.00000000
         1         1         1         1         9        18     -0.00005140
         1         1         1         1         9        19     -0.00000000
         1         1         1         1         9        20     -0.00000000
         1         1         1         1        10         1     -0.00013436
         1         1         1         1        10         2      0.00007408
         1         1         1         1        10         3     -0.00030304
         1         1         1         1        10         4      0.00000000
         1         1         1         1        10         5     -0.00030077
         1         1         1         1        10         6      0.00030334
         1         1         1         1        10         7      0.00016312
         1         1         1         1        10         8     -0.00000000
         1         1         1         1        10         9      0.00000000
         1         1         1         1        10        10     -0.00029143
         1         1         1         1        10        11     -0.00026686
         1         1         1         1        10        12     -0.00074118
         1         1         1         1        10        13      0.00000000
         1         1         1         1        10        14     -0.00000000
         1         1         1         1        10        15      0.00019913
         1         1         1         1        10        16     -0.00000000
         1         1         1         1        10        17     -0.00053724
         1         1         1         1        10        18     -0.00000000
         1         1         1         1        10        19     -0.00094192
         1         1         1         1        10        20      0.00014249
         1         1         1         1        11         1     -0.00011059
         1         1         1         1        11         2      0.00004994
         1         1         1         1        11         3     -0.00027563
         1         1         1         1        11         4      0.00000000
         1         1         1         1        11         5     -0.00027077
         1         1         1         1        11         6      0.00028876
         1         1         1         1        11         7      0.00018836
         1         1         1         1        11         8     -0.00000000
         1         1         1         1        11         9      0.00000000
         1         1         1         1        11        10     -0.00026686
         1         1         1         1        11        11     -0.00026631
         1         1         1         1        11        12     -0.00064721
         1         1         1         1        11        13      0.00000000
         1         1         1         1        11        14      0.00000000
         1         1         1         1        11        15      0.00013035
         1         1         1         1        11        16     -0.00000000
         1         1         1         1        11        17     -0.00045923
         1         1         1         1        11        18      0.00000000
         1         1         1         1        11        19     -0.00094029
         1         1         1         1        11        20      0.00003859
         1         1         1         1        12         1     -0.00042396
         1         1         1         1        12         2      0.00039720
         1         1         1         1        12         3     -0.00066819
         1         1         1         1        12         4      0.00000000
         1         1         1         1        12         5     -0.00092442
         1         1         1         1        12         6      0.00058016
         1         1         1         1        12         7     -0.00021382
         1         1         1         1        12         8      0.00000000
         1         1         1         1        12         9     -0.00000000
         1         1         1         1        12        10     -0.00074118
         1         1         1         1        12        11     -0.00064721
         1         1         1         1        12        12     -0.00212245
         1         1         1         1        12        13     -0.00000000
         1         1         1         1        12        14      0.00000000
         1         1         1         1        12        15      0.00050344
         1         1         1         1        12        16      0.00000000
         1         1         1         1        12        17     -0.00137904
         1         1         1         1        12        18      0.00000000
         1         1         1         1        12        19     -0.00208657
         1         1         1         1        12        20      0.00193116
         1         1         1         1        13         1      0.00000000
         1         1         1         1        13         2     -0.00000000
         1         1         1         1        13         3     -0.00000000
         1         1         1         1        13         4     -0.00000012
         1         1         1         1        13         5     -0.00000000
         1         1         1         1        13         6      0.00000000
         1         1         1         1        13         7     -0.00000000
         1         1         1         1        13         8      0.00000048
         1         1         1         1        13         9     -0.00000112
         1         1         1         1        13        10      0.00000000
         1         1         1         1        13        11      0.00000000
         1         1         1         1        13        12     -0.00000000
         1         1         1         1        13        13     -0.00000586
         1         1         1         1        13        14     -0.00000000
         1         1         1         1        13        15     -0.00000000
         1         1         1         1        13        16      0.00000379
         1         1         1         1        13        17     -0.00000000
         1         1         1         1        13        18     -0.00000487
         1         1         1         1        13        19     -0.00000000
         1         1         1         1        13        20     -0.00000000
         1         1         1         1        14         1      0.00000000
         1         1         1         1        14         2      0.00000000
         1         1         1         1        14         3      0.00000000
         1         1         1         1        14         4      0.00000000
         1         1         1         1        14         5      0.00000000
         1         1         1         1        14         6      0.00000000
         1         1         1         1        14         7      0.00000000
         1         1         1         1        14         8      0.00000000
         1         1         1         1        14         9      0.00000000
         1         1         1         1        14        10     -0.00000000
         1         1         1         1        14        11      0.00000000
         1         1         1         1        14        12      0.00000000
         1         1         1         1        14        13     -0.00000000
         1         1         1         1        14        14      0.00000212
         1         1         1         1        14        15     -0.00000000
         1         1         1         1        14        16      0.00000000
         1         1         1         1        14        17      0.00000000
         1         1         1         1        14        18     -0.00000000
         1         1         1         1        14        19     -0.00000000
         1         1         1         1        14        20     -0.00000000
         1         1         1         1        15         1      0.00006308
         1         1         1         1        15         2     -0.00000122
         1         1         1         1        15         3      0.00020340
         1         1         1         1        15         4     -0.00000000
         1         1         1         1        15         5      0.00012851
         1         1         1         1        15         6     -0.00022592
         1         1         1         1        15         7     -0.00023268
         1         1         1         1        15         8      0.00000000
         1         1         1         1        15         9      0.00000000
         1         1         1         1        15        10      0.00019913
         1         1         1         1        15        11      0.00013035
         1         1         1         1        15        12      0.00050344
         1         1         1         1        15        13     -0.00000000
         1         1         1         1        15        14     -0.00000000
         1         1         1         1        15        15     -0.00024685
         1         1         1         1        15        16      0.00000000
         1         1         1         1        15        17      0.00045511
         1         1         1         1        15        18     -0.00000000
         1         1         1         1        15        19      0.00069238
         1         1         1         1        15        20      0.00025532
         1         1         1         1        16         1     -0.00000000
         1         1         1         1        16         2      0.00000000
         1         1         1         1        16         3      0.00000000
         1         1         1         1        16         4     -0.00000230
         1         1         1         1        16         5      0.00000000
         1         1         1         1        16         6     -0.00000000
         1         1         1         1        16         7      0.00000000
         1         1         1         1        16         8     -0.00000030
         1         1         1         1        16         9     -0.00000469
         1         1         1         1        16        10     -0.00000000
         1         1         1         1        16        11     -0.00000000
         1         1         1         1        16        12      0.00000000
         1         1         1         1        16        13      0.00000379
         1         1         1         1        16        14      0.00000000
         1         1         1         1        16        15      0.00000000
         1         1         1         1        16        16     -0.00000213
         1         1         1         1        16        17      0.00000000
         1         1         1         1        16        18     -0.00002385
         1         1         1         1        16        19      0.00000000
         1         1         1         1        16        20      0.00000000
         1         1         1         1        17         1     -0.00019730
         1         1         1         1        17         2      0.00005693
         1         1         1         1        17         3     -0.00054413
         1         1         1         1        17         4     -0.00000000
         1         1         1         1        17         5     -0.00044987
         1         1         1         1        17         6      0.00058846
         1         1         1         1        17         7      0.00048415
         1         1         1         1        17         8      0.00000000
         1         1         1         1        17         9     -0.00000000
         1         1         1         1        17        10     -0.00053724
         1         1         1         1        17        11     -0.00045923
         1         1         1         1        17        12     -0.00137904
         1         1         1         1        17        13     -0.00000000
         1         1         1         1        17        14      0.00000000
         1         1         1         1        17        15      0.00045511
         1         1         1         1        17        16      0.00000000
         1         1         1         1        17        17     -0.00111974
         1         1         1         1        17        18      0.00000000
         1         1         1         1        17        19     -0.00196952
         1         1         1         1        17        20     -0.00027320
         1         1         1         1        18         1     -0.00000000
         1         1         1         1        18         2      0.00000000
         1         1         1         1        18         3      0.00000000
         1         1         1         1        18         4     -0.00002743
         1         1         1         1        18         5      0.00000000
         1         1         1         1        18         6     -0.00000000
         1         1         1         1        18         7      0.00000000
         1         1         1         1        18         8     -0.00001470
         1         1         1         1        18         9     -0.00005140
         1         1         1         1        18        10     -0.00000000
         1         1         1         1        18        11      0.00000000
         1         1         1         1        18        12      0.00000000
         1         1         1         1        18        13     -0.00000487
         1         1         1         1        18        14     -0.00000000
         1         1         1         1        18        15     -0.00000000
         1         1         1         1        18        16     -0.00002385
         1         1         1         1        18        17      0.00000000
         1         1         1         1        18        18     -0.00021837
         1         1         1         1        18        19      0.00000000
         1         1         1         1        18        20     -0.00000000
         1         1         1         1        19         1     -0.00020348
         1         1         1         1        19         2     -0.00023110
         1         1         1         1        19         3     -0.00108472
         1         1         1         1        19         4      0.00000000
         1         1         1         1        19         5     -0.00055855
         1         1         1         1        19         6      0.00131964
         1         1         1         1        19         7      0.00182771
         1         1         1         1        19         8      0.00000000
         1         1         1         1        19         9     -0.00000000
         1         1         1         1        19        10     -0.00094192
         1         1         1         1        19        11     -0.00094029
         1         1         1         1        19        12     -0.00208657
         1         1         1         1        19        13     -0.00000000
         1         1         1         1        19        14     -0.00000000
         1         1         1         1        19        15      0.00069238
         1         1         1         1        19        16      0.00000000
         1         1         1         1        19        17     -0.00196952
         1         1         1         1        19        18      0.00000000
         1         1         1         1        19        19     -0.00445624
         1         1         1         1        19        20     -0.00316560
         1         1         1         1        20         1      0.00081527
         1         1         1         1        20         2     -0.00171473
         1         1         1         1        20         3     -0.00041712
         1         1         1         1        20         4     -0.00000000
         1         1         1         1        20         5      0.00162227
         1         1         1         1        20         6      0.00119995
         1         1         1         1        20         7      0.00476066
         1         1         1         1        20         8      0.00000000
         1         1         1         1        20         9     -0.00000000
         1         1         1         1        20        10      0.00014249
         1         1         1         1        20        11      0.00003859
         1         1         1         1        20        12      0.00193116
         1         1         1         1        20        13     -0.00000000
         1         1         1         1        20        14     -0.00000000
         1         1         1         1        20        15      0.00025532
         1         1         1         1        20        16      0.00000000
         1         1         1         1        20        17     -0.00027320
         1         1         1         1        20        18     -0.00000000
         1         1         1         1        20        19     -0.00316560
         1         1         1         1        20        20     -0.01458386
         1         1         2         2         1         1      0.00003603
         1         1         2         2         1         2      0.00002682
         1         1         2         2         1         3      0.00000301
         1         1         2         2         1         4     -0.00018431
         1         1         2         2         1         5      0.00000000
         1         1         2         2         1         6      0.00003656
         1         1         2         2         1         7      0.00002313
         1         1         2         2         1         8     -0.00056965
         1         1         2         2         1         9     -0.00000000
         1         1         2         2         1        10      0.00011096
         1         1         2         2         1        11     -0.00000000
         1         1         2         2         1        12      0.00004119
         1         1         2         2         1        13     -0.00009699
         1         1         2         2         2         1      0.00002682
         1         1         2         2         2         2     -0.00013514
         1         1         2         2         2         3      0.00002608
         1         1         2         2         2         4      0.00036361
         1         1         2         2         2         5     -0.00000000
         1         1         2         2         2         6     -0.00005526
         1         1         2         2         2         7     -0.00004291
         1         1         2         2         2         8      0.00108209
         1         1         2         2         2         9      0.00000000
         1         1         2         2         2        10     -0.00020982
         1         1         2         2         2        11      0.00000000
         1         1         2         2         2        12     -0.00007866
         1         1         2         2         2        13      0.00018472
         1         1         2         2         3         1      0.00000301
         1         1         2         2         3         2      0.00002608
         1         1         2         2         3         3     -0.00000334
         1         1         2         2         3         4     -0.00009373
         1         1         2         2         3         5     -0.00000000
         1         1         2         2         3         6      0.00000905
         1         1         2         2         3         7      0.00001311
         1         1         2         2         3         8     -0.00027918
         1         1         2         2         3         9     -0.00000000
         1         1         2         2         3        10      0.00004432
         1         1         2         2         3        11      0.00000000
         1         1         2         2         3        12     -0.00000149
         1         1         2         2         3        13     -0.00006984
         1         1         2         2         4         1     -0.00018431
         1         1         2         2         4         2      0.00036361
         1         1         2         2         4         3     -0.00009373
         1         1         2         2         4         4     -0.00064658
         1         1         2         2         4         5      0.00000000
         1         1         2         2         4         6      0.00007209
         1         1         2         2         4         7      0.00007105
         1         1         2         2         4         8     -0.00183982
         1         1         2         2         4         9      0.00000000
         1         1         2         2         4        10      0.00035674
         1         1         2         2         4        11     -0.00000000
         1         1         2         2         4        12      0.00014034
         1         1         2         2         4        13     -0.00030605
         1         1         2         2         5         1      0.00000000
         1         1         2         2         5         2     -0.00000000
         1         1         2         2         5         3     -0.00000000
         1         1         2         2         5         4      0.00000000
         1         1         2         2         5         5      0.00000437
         1         1         2         2         5         6     -0.00000000
         1         1         2         2         5         7     -0.00000000
         1         1         2         2         5         8      0.00000000
         1         1         2         2         5         9      0.00000096
         1         1         2         2         5        10     -0.00000000
         1         1         2         2         5        11      0.00000005
         1         1         2         2         5        12     -0.00000000
         1         1         2         2         5        13      0.00000000
         1         1         2         2         6         1      0.00003656
         1         1         2         2         6         2     -0.00005526
         1         1         2         2         6         3      0.00000905
         1         1         2         2         6         4      0.00007209
         1         1         2         2         6         5     -0.00000000
         1         1         2         2         6         6     -0.00001888
         1         1         2         2         6         7     -0.00000441
         1         1         2         2         6         8      0.00020934
         1         1         2         2         6         9      0.00000000
         1         1         2         2         6        10     -0.00006264
         1         1         2         2         6        11      0.00000000
         1         1         2         2         6        12     -0.00006211
         1         1         2         2         6        13     -0.00001321
         1         1         2         2         7         1      0.00002313
         1         1         2         2         7         2     -0.00004291
         1         1         2         2         7         3      0.00001311
         1         1         2         2         7         4      0.00007105
         1         1         2         2         7         5     -0.00000000
         1         1         2         2         7         6     -0.00000441
         1         1         2         2         7         7     -0.00000449
         1         1         2         2         7         8      0.00019850
         1         1         2         2         7         9      0.00000000
         1         1         2         2         7        10     -0.00003611
         1         1         2         2         7        11      0.00000000
         1         1         2         2         7        12     -0.00001017
         1         1         2         2         7        13      0.00003762
         1         1         2         2         8         1     -0.00056965
         1         1         2         2         8         2      0.00108209
         1         1         2         2         8         3     -0.00027918
         1         1         2         2         8         4     -0.00183982
         1         1         2         2         8         5      0.00000000
         1         1         2         2         8         6      0.00020934
         1         1         2         2         8         7      0.00019850
         1         1         2         2         8         8     -0.00570404
         1         1         2         2         8         9     -0.00000000
         1         1         2         2         8        10      0.00112682
         1         1         2         2         8        11     -0.00000000
         1         1         2         2         8        12      0.00046109
         1         1         2         2         8        13     -0.00095505
         1         1         2         2         9         1     -0.00000000
         1         1         2         2         9         2      0.00000000
         1         1         2         2         9         3     -0.00000000
         1         1         2         2         9         4      0.00000000
         1         1         2         2         9         5      0.00000096
         1         1         2         2         9         6      0.00000000
         1         1         2         2         9         7      0.00000000
         1         1         2         2         9         8     -0.00000000
         1         1         2         2         9         9      0.00000270
         1         1         2         2         9        10      0.00000000
         1         1         2         2         9        11     -0.00000186
         1         1         2         2         9        12      0.00000000
         1         1         2         2         9        13     -0.00000000
         1         1         2         2        10         1      0.00011096
         1         1         2         2        10         2     -0.00020982
         1         1         2         2        10         3      0.00004432
         1         1         2         2        10         4      0.00035674
         1         1         2         2        10         5     -0.00000000
         1         1         2         2        10         6     -0.00006264
         1         1         2         2        10         7     -0.00003611
         1         1         2         2        10         8      0.00112682
         1         1         2         2        10         9      0.00000000
         1         1         2         2        10        10     -0.00025352
         1         1         2         2        10        11      0.00000000
         1         1         2         2        10        12     -0.00013594
         1         1         2         2        10        13      0.00014105
         1         1         2         2        11         1     -0.00000000
         1         1         2         2        11         2      0.00000000
         1         1         2         2        11         3      0.00000000
         1         1         2         2        11         4     -0.00000000
         1         1         2         2        11         5      0.00000005
         1         1         2         2        11         6      0.00000000
         1         1         2         2        11         7      0.00000000
         1         1         2         2        11         8     -0.00000000
         1         1         2         2        11         9     -0.00000186
         1         1         2         2        11        10      0.00000000
         1         1         2         2        11        11     -0.00000628
         1         1         2         2        11        12      0.00000000
         1         1         2         2        11        13     -0.00000000
         1         1         2         2        12         1      0.00004119
         1         1         2         2        12         2     -0.00007866
         1         1         2         2        12         3     -0.00000149
         1         1         2         2        12         4      0.00014034
         1         1         2         2        12         5     -0.00000000
         1         1         2         2        12         6     -0.00006211
         1         1         2         2        12         7     -0.00001017
         1         1         2         2        12         8      0.00046109
         1         1         2         2        12         9      0.00000000
         1         1         2         2        12        10     -0.00013594
         1         1         2         2        12        11      0.00000000
         1         1         2         2        12        12     -0.00013652
         1         1         2         2        12        13     -0.00003157
         1         1         2         2        13         1     -0.00009699
         1         1         2         2        13         2      0.00018472
         1         1         2         2        13         3     -0.00006984
         1         1         2         2        13         4     -0.00030605
         1         1         2         2        13         5      0.00000000
         1         1         2         2        13         6     -0.00001321
         1         1         2         2        13         7      0.00003762
         1         1         2         2        13         8     -0.00095505
         1         1         2         2        13         9     -0.00000000
         1         1         2         2        13        10      0.00014105
         1         1         2         2        13        11     -0.00000000
         1         1         2         2        13        12     -0.00003157
         1         1         2         2        13        13     -0.00027625
         1         1         3         3         1         1      0.00003603
         1         1         3         3         1         2      0.00002682
         1         1         3         3         1         3      0.00000301
         1         1         3         3         1         4     -0.00018431
         1         1         3         3         1         5     -0.00000000
         1         1         3         3         1         6      0.00003656
         1         1         3         3         1         7      0.00002313
         1         1         3         3         1         8     -0.00056965
         1         1         3         3         1         9      0.00000000
         1         1         3         3         1        10      0.00011096
         1         1         3         3         1        11      0.00000000
         1         1         3         3         1        12      0.00004119
         1         1         3         3         1        13     -0.00009699
         1         1         3         3         2         1      0.00002682
         1         1         3         3         2         2     -0.00013514
         1         1         3         3         2         3      0.00002608
         1         1         3         3         2         4      0.00036361
         1         1         3         3         2         5      0.00000000
         1         1         3         3         2         6     -0.00005526
         1         1         3         3         2         7     -0.00004291
         1         1         3         3         2         8      0.00108209
         1         1         3         3         2         9     -0.00000000
         1         1         3         3         2        10     -0.00020982
         1         1         3         3         2        11     -0.00000000
         1         1         3         3         2        12     -0.00007866
         1         1         3         3         2        13      0.00018472
         1         1         3         3         3         1      0.00000301
         1         1         3         3         3         2      0.00002608
         1         1         3         3         3         3     -0.00000334
         1         1         3         3         3         4     -0.00009373
         1         1         3         3         3         5      0.00000000
         1         1         3         3         3         6      0.00000905
         1         1         3         3         3         7      0.00001311
         1         1         3         3         3         8     -0.00027918
         1         1         3         3         3         9      0.00000000
         1         1         3         3         3        10      0.00004432
         1         1         3         3         3        11     -0.00000000
         1         1         3         3         3        12     -0.00000149
         1         1         3         3         3        13     -0.00006984
         1         1         3         3         4         1     -0.00018431
         1         1         3         3         4         2      0.00036361
         1         1         3         3         4         3     -0.00009373
         1         1         3         3         4         4     -0.00064658
         1         1         3         3         4         5     -0.00000000
         1         1         3         3         4         6      0.00007209
         1         1         3         3         4         7      0.00007105
         1         1         3         3         4         8     -0.00183982
         1         1         3         3         4         9     -0.00000000
         1         1         3         3         4        10      0.00035674
         1         1         3         3         4        11      0.00000000
         1         1         3         3         4        12      0.00014034
         1         1         3         3         4        13     -0.00030605
         1         1         3         3         5         1     -0.00000000
         1         1         3         3         5         2      0.00000000
         1         1         3         3         5         3      0.00000000
         1         1         3         3         5         4     -0.00000000
         1         1         3         3         5         5      0.00000437
         1         1         3         3         5         6      0.00000000
         1         1         3         3         5         7      0.00000000
         1         1         3         3         5         8     -0.00000000
         1         1         3         3         5         9      0.00000096
         1         1         3         3         5        10      0.00000000
         1         1         3         3         5        11      0.00000005
         1         1         3         3         5        12      0.00000000
         1         1         3         3         5        13     -0.00000000
         1         1         3         3         6         1      0.00003656
         1         1         3         3         6         2     -0.00005526
         1         1         3         3         6         3      0.00000905
         1         1         3         3         6         4      0.00007209
         1         1         3         3         6         5      0.00000000
         1         1         3         3         6         6     -0.00001888
         1         1         3         3         6         7     -0.00000441
         1         1         3         3         6         8      0.00020934
         1         1         3         3         6         9     -0.00000000
         1         1         3         3         6        10     -0.00006264
         1         1         3         3         6        11     -0.00000000
         1         1         3         3         6        12     -0.00006211
         1         1         3         3         6        13     -0.00001321
         1         1         3         3         7         1      0.00002313
         1         1         3         3         7         2     -0.00004291
         1         1         3         3         7         3      0.00001311
         1         1         3         3         7         4      0.00007105
         1         1         3         3         7         5      0.00000000
         1         1         3         3         7         6     -0.00000441
         1         1         3         3         7         7     -0.00000449
         1         1         3         3         7         8      0.00019850
         1         1         3         3         7         9     -0.00000000
         1         1         3         3         7        10     -0.00003611
         1         1         3         3         7        11     -0.00000000
         1         1         3         3         7        12     -0.00001017
         1         1         3         3         7        13      0.00003762
         1         1         3         3         8         1     -0.00056965
[...]
         3         2         6         2        13         9     -0.00000000
         3         2         6         2        13        10     -0.00001916
         3         2         6         2        13        11      0.00000000
         3         2         6         2        13        12      0.00015000
         3         2         6         2        13        13      0.00016209
         3         2         7         3         1         1     -0.00011541
         3         2         7         3         1         2      0.00016696
         3         2         7         3         1         3     -0.00005749
         3         2         7         3         1         4     -0.00017059
         3         2         7         3         1         5      0.00000000
         3         2         7         3         1         6     -0.00003237
         3         2         7         3         1         7      0.00001492
         3         2         7         3         1         8     -0.00003836
         3         2         7         3         1         9     -0.00000000
         3         2         7         3         1        10     -0.00001110
         3         2         7         3         1        11      0.00000000
         3         2         7         3         1        12     -0.00002100
         3         2         7         3         1        13     -0.00001599
         3         2         7         3         2         1     -0.00046174
         3         2         7         3         2         2      0.00066456
         3         2         7         3         2         3     -0.00023194
         3         2         7         3         2         4     -0.00067825
         3         2         7         3         2         5     -0.00000000
         3         2         7         3         2         6     -0.00013221
         3         2         7         3         2         7      0.00006066
         3         2         7         3         2         8     -0.00015668
         3         2         7         3         2         9      0.00000000
         3         2         7         3         2        10     -0.00004238
         3         2         7         3         2        11      0.00000000
         3         2         7         3         2        12     -0.00008517
         3         2         7         3         2        13     -0.00006438
         3         2         7         3         3         1      0.00022899
         3         2         7         3         3         2     -0.00032715
         3         2         7         3         3         3      0.00009910
         3         2         7         3         3         4      0.00034082
         3         2         7         3         3         5     -0.00000000
         3         2         7         3         3         6      0.00003910
         3         2         7         3         3         7     -0.00002550
         3         2         7         3         3         8      0.00007903
         3         2         7         3         3         9      0.00000000
         3         2         7         3         3        10      0.00001731
         3         2         7         3         3        11      0.00000000
         3         2         7         3         3        12      0.00003181
         3         2         7         3         3        13      0.00002405
         3         2         7         3         4         1     -0.00089874
         3         2         7         3         4         2      0.00129632
         3         2         7         3         4         3     -0.00049443
         3         2         7         3         4         4     -0.00133078
         3         2         7         3         4         5      0.00000000
         3         2         7         3         4         6     -0.00033411
         3         2         7         3         4         7      0.00012807
         3         2         7         3         4         8     -0.00033206
         3         2         7         3         4         9     -0.00000000
         3         2         7         3         4        10     -0.00011681
         3         2         7         3         4        11      0.00000000
         3         2         7         3         4        12     -0.00020440
         3         2         7         3         4        13     -0.00016144
         3         2         7         3         5         1     -0.00000000
         3         2         7         3         5         2      0.00000000
         3         2         7         3         5         3     -0.00000000
         3         2         7         3         5         4     -0.00000000
         3         2         7         3         5         5     -0.00000973
         3         2         7         3         5         6      0.00000000
         3         2         7         3         5         7      0.00000000
         3         2         7         3         5         8     -0.00000000
         3         2         7         3         5         9     -0.00000336
         3         2         7         3         5        10      0.00000000
         3         2         7         3         5        11     -0.00001075
         3         2         7         3         5        12      0.00000000
         3         2         7         3         5        13     -0.00000000
         3         2         7         3         6         1     -0.00041411
         3         2         7         3         6         2      0.00059419
         3         2         7         3         6         3     -0.00017378
         3         2         7         3         6         4     -0.00063495
         3         2         7         3         6         5     -0.00000000
         3         2         7         3         6         6     -0.00005752
         3         2         7         3         6         7      0.00004667
         3         2         7         3         6         8     -0.00016515
         3         2         7         3         6         9      0.00000000
         3         2         7         3         6        10     -0.00002330
         3         2         7         3         6        11      0.00000000
         3         2         7         3         6        12     -0.00005574
         3         2         7         3         6        13     -0.00004513
         3         2         7         3         7         1     -0.00077023
         3         2         7         3         7         2      0.00113275
         3         2         7         3         7         3     -0.00052483
         3         2         7         3         7         4     -0.00119151
         3         2         7         3         7         5     -0.00000000
         3         2         7         3         7         6     -0.00046660
         3         2         7         3         7         7      0.00013114
         3         2         7         3         7         8     -0.00032452
         3         2         7         3         7         9      0.00000000
         3         2         7         3         7        10     -0.00018178
         3         2         7         3         7        11      0.00000000
         3         2         7         3         7        12     -0.00026052
         3         2         7         3         7        13     -0.00020686
         3         2         7         3         8         1     -0.00089930
         3         2         7         3         8         2      0.00131045
         3         2         7         3         8         3     -0.00044355
         3         2         7         3         8         4     -0.00146240
         3         2         7         3         8         5     -0.00000000
         3         2         7         3         8         6     -0.00021223
         3         2         7         3         8         7      0.00014084
         3         2         7         3         8         8     -0.00036481
         3         2         7         3         8         9     -0.00000000
         3         2         7         3         8        10     -0.00008606
         3         2         7         3         8        11      0.00000000
         3         2         7         3         8        12     -0.00021521
         3         2         7         3         8        13     -0.00015361
         3         2         7         3         9         1      0.00000000
         3         2         7         3         9         2     -0.00000000
         3         2         7         3         9         3     -0.00000000
         3         2         7         3         9         4      0.00000000
         3         2         7         3         9         5     -0.00004612
         3         2         7         3         9         6     -0.00000000
         3         2         7         3         9         7      0.00000000
         3         2         7         3         9         8      0.00000000
         3         2         7         3         9         9     -0.00003716
         3         2         7         3         9        10     -0.00000000
         3         2         7         3         9        11     -0.00009903
         3         2         7         3         9        12     -0.00000000
         3         2         7         3         9        13      0.00000000
         3         2         7         3        10         1      0.00000000
         3         2         7         3        10         2     -0.00000000
         3         2         7         3        10         3     -0.00000000
         3         2         7         3        10         4     -0.00000000
         3         2         7         3        10         5     -0.00001283
         3         2         7         3        10         6      0.00000000
         3         2         7         3        10         7      0.00000000
         3         2         7         3        10         8      0.00000000
         3         2         7         3        10         9     -0.00004090
         3         2         7         3        10        10     -0.00000000
         3         2         7         3        10        11     -0.00001516
         3         2         7         3        10        12     -0.00000000
         3         2         7         3        10        13      0.00000000
         3         2         7         3        11         1     -0.00049632
         3         2         7         3        11         2      0.00072446
         3         2         7         3        11         3     -0.00023803
         3         2         7         3        11         4     -0.00081948
         3         2         7         3        11         5     -0.00000000
         3         2         7         3        11         6     -0.00012534
         3         2         7         3        11         7      0.00005140
         3         2         7         3        11         8     -0.00018895
         3         2         7         3        11         9     -0.00000000
         3         2         7         3        11        10     -0.00011083
         3         2         7         3        11        11      0.00000000
         3         2         7         3        11        12     -0.00009120
         3         2         7         3        11        13     -0.00007288
         3         2         7         3        12         1     -0.00041677
         3         2         7         3        12         2      0.00065286
         3         2         7         3        12         3     -0.00044944
         3         2         7         3        12         4     -0.00073253
         3         2         7         3        12         5     -0.00000000
         3         2         7         3        12         6     -0.00061031
         3         2         7         3        12         7      0.00010143
         3         2         7         3        12         8     -0.00028036
         3         2         7         3        12         9     -0.00000000
         3         2         7         3        12        10     -0.00036070
         3         2         7         3        12        11      0.00000000
         3         2         7         3        12        12     -0.00037298
         3         2         7         3        12        13     -0.00029627
         3         2         7         3        13         1      0.00041450
         3         2         7         3        13         2     -0.00061003
         3         2         7         3        13         3      0.00023899
         3         2         7         3        13         4      0.00069547
         3         2         7         3        13         5      0.00000000
         3         2         7         3        13         6      0.00013289
         3         2         7         3        13         7     -0.00009278
         3         2         7         3        13         8      0.00013530
         3         2         7         3        13         9      0.00000000
         3         2         7         3        13        10     -0.00001916
         3         2         7         3        13        11     -0.00000000
         3         2         7         3        13        12      0.00015000
         3         2         7         3        13        13      0.00016209
         3         2         8         4         1         1     -0.00004146
         3         2         8         4         1         2     -0.00002393
         3         2         8         4         1         3     -0.00006181
         3         2         8         4         1         4     -0.00001097
         3         2         8         4         1         5     -0.00000000
         3         2         8         4         1         6     -0.00000213
         3         2         8         4         1         7     -0.00004860
         3         2         8         4         2         1      0.00006404
         3         2         8         4         2         2      0.00003243
         3         2         8         4         2         3      0.00009566
         3         2         8         4         2         4      0.00001429
         3         2         8         4         2         5     -0.00000000
         3         2         8         4         2         6      0.00000497
         3         2         8         4         2         7      0.00006914
         3         2         8         4         3         1     -0.00011008
         3         2         8         4         3         2     -0.00007318
         3         2         8         4         3         3     -0.00015936
         3         2         8         4         3         4     -0.00004017
         3         2         8         4         3         5      0.00000000
         3         2         8         4         3         6     -0.00000041
         3         2         8         4         3         7     -0.00011578
         3         2         8         4         4         1     -0.00000000
         3         2         8         4         4         2      0.00000000
         3         2         8         4         4         3      0.00000000
         3         2         8         4         4         4      0.00000000
         3         2         8         4         4         5     -0.00002993
         3         2         8         4         4         6     -0.00000000
         3         2         8         4         4         7     -0.00000000
         3         2         8         4         5         1     -0.00001422
         3         2         8         4         5         2     -0.00005353
         3         2         8         4         5         3     -0.00001225
         3         2         8         4         5         4     -0.00009848
         3         2         8         4         5         5     -0.00000000
         3         2         8         4         5         6      0.00002701
         3         2         8         4         5         7     -0.00001108
         3         2         8         4         6         1     -0.00023153
         3         2         8         4         6         2     -0.00016639
         3         2         8         4         6         3     -0.00038780
         3         2         8         4         6         4     -0.00013819
         3         2         8         4         6         5     -0.00000000
         3         2         8         4         6         6     -0.00001775
         3         2         8         4         6         7     -0.00040969
         3         2         8         4         7         1      0.00004061
         3         2         8         4         7         2      0.00000304
         3         2         8         4         7         3      0.00007347
         3         2         8         4         7         4     -0.00005149
         3         2         8         4         7         5      0.00000000
         3         2         8         4         7         6     -0.00001164
         3         2         8         4         7         7      0.00009572


 RESULTS
 =======

  Reference energy                    -14.871275922556

  Correlated core orbitals:             1.1       1.5
  Orbital energies:                    -2.4528   -2.4524

  CCD core-core energy                 -0.033802066656
  CCD core-valence energy              -0.003687061012
  CCD valence correlation energy       -0.031520037578

  CCD singlet pair energy              -0.067392072090
  CCD triplet pair energy              -0.001617093157
  CCD correlation energy               -0.069009165247

 !CCD total energy                    -14.940285087802

 Timing summary (sec):

 STEP                 CPU(USER)    SYS     CPU(TOT)    WALL
 Transformation          0.02      0.01      0.03      0.04
 CCSD iterations         0.52      0.06      0.58      0.58

 Program statistics:

 Available memory in ccsd:                39999164
 Min. memory needed in ccsd:                 46689
 Max. memory used in ccsd:                   51202
 Max. memory used in cckext:                 74859 (34 integral passes)



 **********************************************************************************************************************************
 DATASETS  * FILE   NREC   LENGTH (MB)   RECORD NAMES
              1      20       41.25       500      700      610      900      950      970     1000      129      960     1100   
                                          VAR     GEOM    BASINP   SYMINP    ZMAT    AOBASIS   BASIS     P2S    ABASIS      S 
                                         1400     1410     1200     1210     1080     1600     1650     1300     1700     1380   
                                           T        V       H0       H01     AOSYM     SMH    MOLCAS    ERIS     OPER     JKOP   

              3       5       14.82       500      610      700     1000     2100   
                                          VAR    BASINP    GEOM     BASIS     RHF  

 PROGRAMS   *        TOTAL      CCSD       INT   RESTART
 CPU TIMES  *         1.72      0.57      1.06      0.02
 REAL TIME  *         1.99 SEC
 DISK USED  *        86.27 MB
 **********************************************************************************************************************************
 Molecular orbitals read from record     2100.3  Type=RHF/CANONICAL (state 1.1)
 Occupation numbers read from record     2100.3  Type=RHF/RHF (state 1.1)
 Orbital energies read from record       2100.3  Type=RHF/CANONICAL (state 1.1)
 Redundancy group numbers read from rec  2100.3  Type=RHF/RHF (state 1.1)

 CCSD/cc-pVQZ energy=    -14.940285087802

            CCSD
    -14.94028509
 **********************************************************************************************************************************
 Molpro calculation terminated
