
 Primary working directories    : /scr/yuriaoto/job.023644/molpro.TjXU6tra30
 Secondary working directories  : /scr/yuriaoto/job.023644/molpro.TjXU6tra30
 Wavefunction directory         : /scr/yuriaoto/job.023644/
 Main file repository           : /scr/yuriaoto/job.023644/molpro.TjXU6tra30/

 id        : yuriaoto

 Nodes             nprocs
 t-rex.ufabc.int.br    1

 Using customized tuning parameters: mindgm=8; mindgv=16; mindgc=1; mindgr=1; noblas=0; minvec=7
 default implementation of scratch files=df  


 Variables initialized (933), CPU time= 0.01 sec
 ***,
 memory,40,m
 gprint,orbital,basis,civector
 gthresh,thrprint=0,printci=0.0
 file,3,wfu.dat,old
 
 {ccsd,CC_NORM_MAX=10000.0
 nosingle
 thresh,printci=0.0,ENERGY=1.0E-10,COEFF=1.0E-12
 print,ref=1
 wf,24,1,0;
 }
 
 Commands  initialized (760), CPU time= 0.01 sec, 617 directives.
 Default parameters read. Elapsed time= 0.05 sec

 Checking input...
 Passed
1


                                         ***  PROGRAM SYSTEM MOLPRO  ***
                                       Copyright, TTI GmbH Stuttgart, 2015
                                    Version 2019.2 linked Abr  7 2019 15:10:35


 **********************************************************************************************************************************
 LABEL *                                                                                 
  64 bit serial version                                                                  DATE: 05-Jun-20          TIME: 22:21:45  
 **********************************************************************************************************************************

 SHA1:             3a8a58c585c929645742fb5a1b7541a4ad1da699
 **********************************************************************************************************************************


 THRESHOLDS:

 ZERO    =  1.00D-12  ONEINT  =  1.00D-12  TWOINT  =  1.00D-11  PREFAC  =  1.00D-14  XXXXXX  =  1.00D-09  EORDER  =  1.00D-04
 ENERGY  =  0.00D+00  ETEST   =  0.00D+00  EDENS   =  0.00D+00  THRDEDEF=  1.00D-06  GRADIENT=  1.00D-02  STEP    =  1.00D-03
 ORBITAL =  1.00D-05  CIVEC   =  1.00D-05  COEFF   =  1.00D-04  PRINTCI =  0.00D+00  PUNCHCI =  9.90D+01  OPTGRAD =  3.00D-04
 OPTENERG=  1.00D-06  OPTSTEP =  3.00D-04  THRGRAD =  1.00D-10  COMPRESS=  1.00D-11  VARMIN  =  1.00D-07  VARMAX  =  1.00D-03
 THRDOUB =  0.00D+00  THRDIV  =  1.00D-05  THRRED  =  1.00D-07  THRPSP  =  1.00D+00  THRDC   =  1.00D-10  THRCS   =  1.00D-10
 THRNRM  =  1.00D-08  THREQ   =  0.00D+00  THRDE   =  1.00D+00  THRREF  =  1.00D-05  SPARFAC =  1.00D+00  THRDLP  =  1.00D-07
 THRDIA  =  1.00D-10  THRDLS  =  1.00D-07  THRGPS  =  0.00D+00  THRKEX  =  0.00D+00  THRDIS  =  2.00D-01  THRVAR  =  1.00D-10
 THRLOC  =  1.00D-06  THRGAP  =  1.00D-06  THRLOCT = -1.00D+00  THRGAPT = -1.00D+00  THRORB  =  1.00D-06  THRMLTP =  0.00D+00
 THRCPQCI=  1.00D-10  KEXTA   =  0.00D+00  THRCOARS=  0.00D+00  SYMTOL  =  1.00D-06  GRADTOL =  1.00D-06  THROVL  =  1.00D-08
 THRORTH =  1.00D-08  GRID    =  1.00D-06  GRIDMAX =  1.00D-03  DTMAX   =  0.00D+00  THROCCDE=  1.00D-01  THROCCDE=  1.00D-01
 THRPRINT=  0.00D+00


 Variable memory set to   40000000 words,  buffer space 



 Permanent file  3  wfu.dat  assigned.  Implementation=df    Size= 14.23 MB


 PROGRAM * RESTART 


 Reading variables from file 3

 _FNUC           =      0.00000000
 _BASIS          =    6-31G
 _NELEC          =     24.00000000
 _PROGRAM        =    RHF-SCF
 _DMZ            =      0.00000000
 _DMX_SCF        =      0.00000000
 _DMY_SCF        =      0.00000000
 _DMZ_SCF        =      0.00000000
 _HOMO           =      2.20000000
 _EHOMO          =     -0.16514840
 _LUMO           =      2.40000000
 _ELUMO          =      0.01204027
 _ENERGY         =    -59.51321462
 _ENERGY_METHOD  =    RHF
 _ENERGY_BASIS   =    6-31G
 _ENUC           =     36.18727945
 _EPS1(1:9)      =     -2.44606597    -0.27154166     0.01387583     0.01387583     0.01974738     0.16967502
                        0.16967502     0.17748779     0.65577377
 _EPS2(1:9)      =     -2.44595365    -0.16514840     0.06583970     0.08024304     0.10918713     0.20947133
                        0.21026523     0.32305975     0.77430831
 _EPS3(1:9)      =     -2.44595365    -0.16514840     0.06583970     0.08024304     0.10918713     0.20947133
                        0.21026523     0.32305975     0.77430831
 _EPS4(1:9)      =     -2.44586539     0.01204027     0.11857342     0.14587398     0.15178986     0.25645901
                        0.35040202     0.43718871     1.07484211
 _EPS5(1:9)      =     -2.44595365    -0.16514840     0.06583970     0.08024304     0.10918713     0.20947133
                        0.21026523     0.32305975     0.77430831
 _EPS6(1:9)      =     -2.44586539     0.01204027     0.11857342     0.14587398     0.15178986     0.25645901
                        0.35040202     0.43718871     1.07484211
 _EPS7(1:9)      =     -2.44586539     0.01204027     0.11857342     0.14587398     0.15178986     0.25645901
                        0.35040202     0.43718871     1.07484211
 _EPS8(1:9)      =     -2.44578039     0.06692471     0.18257294     0.18257294     0.19933103     0.41404808
                        0.41404808     0.60754299     1.43040756
 _IPROC_MPP      =      0.00000000
 _IPROC_MPPX     =      0.00000000
 _ORBITAL        =   2100.30000000
 _STATUS         =      1.00000000
 _DATE           =    23-Mar-20
 _LASTORB        =    RHF
 _OUTPUT         =    /scr/yuriaoto/job.022842/RHF.xml
 _PGROUP         =    D2h 
 _TIME           =    15:18:14
 R               =      1.50000000

 Geometry written to block  1 of record 700


 **********************************************************************************************************************************
 DATASETS  * FILE   NREC   LENGTH (MB)   RECORD NAMES
              3       5       14.92       500      610      700     1000     2100   
                                          VAR    BASINP    GEOM     BASIS     RHF  

 PROGRAMS   *        TOTAL   RESTART
 CPU TIMES  *         0.11      0.01
 REAL TIME  *         0.15 SEC
 DISK USED  *        27.01 MB
 **********************************************************************************************************************************


 Recomputing integrals since basis changed


 Using spherical harmonics

 Library entry LI     S 6-31G                selected for orbital group  1
 Library entry LI     P 6-31G                selected for orbital group  1


 PROGRAM * SEWARD (Integral evaluation for generally contracted gaussian basis sets)     Author: Roland Lindh, 1990

 Geometry written to block  1 of record 700


 Point group  D2h 



 ATOMIC COORDINATES

 NR  ATOM    CHARGE       X              Y              Z

   1  LI1     3.00    2.834589187    2.834589187    2.834589187
   2  LI2     3.00   -2.834589187   -2.834589187    2.834589187
   3  LI3     3.00    2.834589187   -2.834589187    2.834589187
   4  LI4     3.00   -2.834589187    2.834589187    2.834589187
   5  LI5     3.00    2.834589187    2.834589187   -2.834589187
   6  LI6     3.00   -2.834589187   -2.834589187   -2.834589187
   7  LI7     3.00    2.834589187   -2.834589187   -2.834589187
   8  LI8     3.00   -2.834589187    2.834589187   -2.834589187

 Bond lengths in Bohr (Angstrom)

 1-3  5.669178374  1-4  5.669178374  1-5  5.669178374  2-3  5.669178374  2-4  5.669178374
     ( 3.000000000)     ( 3.000000000)     ( 3.000000000)     ( 3.000000000)     ( 3.000000000)

 2-6  5.669178374  3-7  5.669178374  4-8  5.669178374  5-7  5.669178374  5-8  5.669178374
     ( 3.000000000)     ( 3.000000000)     ( 3.000000000)     ( 3.000000000)     ( 3.000000000)

 6-7  5.669178374  6-8  5.669178374
     ( 3.000000000)     ( 3.000000000)

 Bond angles

  1-3-2   90.00000000   1-3-7   90.00000000   1-4-2   90.00000000   1-4-8   90.00000000

  1-5-7   90.00000000   1-5-8   90.00000000   2-3-7   90.00000000   2-4-8   90.00000000

  2-6-7   90.00000000   2-6-8   90.00000000   3-1-4   90.00000000   3-1-5   90.00000000

  3-2-4   90.00000000   3-2-6   90.00000000   3-7-5   90.00000000   3-7-6   90.00000000

  4-1-5   90.00000000   4-2-6   90.00000000   4-8-5   90.00000000   4-8-6   90.00000000

  5-7-6   90.00000000   5-8-6   90.00000000   7-5-8   90.00000000   7-6-8   90.00000000


 BASIS DATA

   Nr Sym  Nuc  Type         Exponents   Contraction coefficients

    1.1 Ag    1  1s         642.418910     0.002143
              2  1s          96.798515     0.016209
              3  1s          22.091121     0.077316
              4  1s           6.201070     0.245786
              5  1s           1.935118     0.470189
              6  1s           0.636736     0.345471
              7  1s    
              8  1s    
    2.1 Ag    1  1s           2.324918    -0.035092
              2  1s           0.632430    -0.191233
              3  1s           0.079053     1.083988
              4  1s    
              5  1s    
              6  1s    
              7  1s    
              8  1s    
    3.1 Ag    1  1s           0.035962     1.000000
              2  1s    
              3  1s    
              4  1s    
              5  1s    
              6  1s    
              7  1s    
              8  1s    
    4.1 Ag    1  2px          2.324918     0.008942
              2 -2px          0.632430     0.141009
              3  2px          0.079053     0.945364
              4 -2px   
              5  2px   
              6 -2px   
              7  2px   
              8 -2px   
    5.1 Ag    1  2py          2.324918     0.008942
              2 -2py          0.632430     0.141009
              3 -2py          0.079053     0.945364
              4  2py   
              5  2py   
              6 -2py   
              7 -2py   
              8  2py   
    6.1 Ag    1  2pz          2.324918     0.008942
              2  2pz          0.632430     0.141009
              3  2pz          0.079053     0.945364
              4  2pz   
              5 -2pz   
              6 -2pz   
              7 -2pz   
              8 -2pz   
    7.1 Ag    1  2px          0.035962     1.000000
              2 -2px   
              3  2px   
              4 -2px   
              5  2px   
              6 -2px   
              7  2px   
              8 -2px   
    8.1 Ag    1  2py          0.035962     1.000000
              2 -2py   
              3 -2py   
              4  2py   
              5  2py   
              6 -2py   
              7 -2py   
              8  2py   
    9.1 Ag    1  2pz          0.035962     1.000000
              2  2pz   
              3  2pz   
              4  2pz   
              5 -2pz   
              6 -2pz   
              7 -2pz   
              8 -2pz   
    1.2 B3u   1  1s         642.418910     0.002143
              2 -1s          96.798515     0.016209
              3  1s          22.091121     0.077316
              4 -1s           6.201070     0.245786
              5  1s           1.935118     0.470189
              6 -1s           0.636736     0.345471
              7  1s    
              8 -1s    
    2.2 B3u   1  1s           2.324918    -0.035092
              2 -1s           0.632430    -0.191233
              3  1s           0.079053     1.083988
              4 -1s    
              5  1s    
              6 -1s    
              7  1s    
              8 -1s    
    3.2 B3u   1  1s           0.035962     1.000000
              2 -1s    
              3  1s    
              4 -1s    
              5  1s    
              6 -1s    
              7  1s    
              8 -1s    
    4.2 B3u   1  2px          2.324918     0.008942
              2  2px          0.632430     0.141009
              3  2px          0.079053     0.945364
              4  2px   
              5  2px   
              6  2px   
              7  2px   
              8  2px   
    5.2 B3u   1  2py          2.324918     0.008942
              2  2py          0.632430     0.141009
              3 -2py          0.079053     0.945364
              4 -2py   
              5  2py   
              6  2py   
              7 -2py   
              8 -2py   
    6.2 B3u   1  2pz          2.324918     0.008942
              2 -2pz          0.632430     0.141009
              3  2pz          0.079053     0.945364
              4 -2pz   
              5 -2pz   
              6  2pz   
              7 -2pz   
              8  2pz   
    7.2 B3u   1  2px          0.035962     1.000000
              2  2px   
              3  2px   
              4  2px   
              5  2px   
              6  2px   
              7  2px   
              8  2px   
    8.2 B3u   1  2py          0.035962     1.000000
              2  2py   
              3 -2py   
              4 -2py   
              5  2py   
              6  2py   
              7 -2py   
              8 -2py   
    9.2 B3u   1  2pz          0.035962     1.000000
              2 -2pz   
              3  2pz   
              4 -2pz   
              5 -2pz   
              6  2pz   
              7 -2pz   
              8  2pz   
    1.3 B2u   1  1s         642.418910     0.002143
              2 -1s          96.798515     0.016209
              3 -1s          22.091121     0.077316
              4  1s           6.201070     0.245786
              5  1s           1.935118     0.470189
              6 -1s           0.636736     0.345471
              7 -1s    
              8  1s    
    2.3 B2u   1  1s           2.324918    -0.035092
              2 -1s           0.632430    -0.191233
              3 -1s           0.079053     1.083988
              4  1s    
              5  1s    
              6 -1s    
              7 -1s    
              8  1s    
    3.3 B2u   1  1s           0.035962     1.000000
              2 -1s    
              3 -1s    
              4  1s    
              5  1s    
              6 -1s    
              7 -1s    
              8  1s    
    4.3 B2u   1  2py          2.324918     0.008942
              2  2py          0.632430     0.141009
              3  2py          0.079053     0.945364
              4  2py   
              5  2py   
              6  2py   
              7  2py   
              8  2py   
    5.3 B2u   1  2px          2.324918     0.008942
              2  2px          0.632430     0.141009
              3 -2px          0.079053     0.945364
              4 -2px   
              5  2px   
              6  2px   
              7 -2px   
              8 -2px   
    6.3 B2u   1  2pz          2.324918     0.008942
              2 -2pz          0.632430     0.141009
              3 -2pz          0.079053     0.945364
              4  2pz   
              5 -2pz   
              6  2pz   
              7  2pz   
              8 -2pz   
    7.3 B2u   1  2py          0.035962     1.000000
              2  2py   
              3  2py   
              4  2py   
              5  2py   
              6  2py   
              7  2py   
              8  2py   
    8.3 B2u   1  2px          0.035962     1.000000
              2  2px   
              3 -2px   
              4 -2px   
              5  2px   
              6  2px   
              7 -2px   
              8 -2px   
    9.3 B2u   1  2pz          0.035962     1.000000
              2 -2pz   
              3 -2pz   
              4  2pz   
              5 -2pz   
              6  2pz   
              7  2pz   
              8 -2pz   
    1.4 B1g   1  1s         642.418910     0.002143
              2  1s          96.798515     0.016209
              3 -1s          22.091121     0.077316
              4 -1s           6.201070     0.245786
              5  1s           1.935118     0.470189
              6  1s           0.636736     0.345471
              7 -1s    
              8 -1s    
    2.4 B1g   1  1s           2.324918    -0.035092
              2  1s           0.632430    -0.191233
              3 -1s           0.079053     1.083988
              4 -1s    
              5  1s    
              6  1s    
              7 -1s    
              8 -1s    
    3.4 B1g   1  1s           0.035962     1.000000
              2  1s    
              3 -1s    
              4 -1s    
              5  1s    
              6  1s    
              7 -1s    
              8 -1s    
    4.4 B1g   1  2py          2.324918     0.008942
              2 -2py          0.632430     0.141009
              3  2py          0.079053     0.945364
              4 -2py   
              5  2py   
              6 -2py   
              7  2py   
              8 -2py   
    5.4 B1g   1  2px          2.324918     0.008942
              2 -2px          0.632430     0.141009
              3 -2px          0.079053     0.945364
              4  2px   
              5  2px   
              6 -2px   
              7 -2px   
              8  2px   
    6.4 B1g   1  2pz          2.324918     0.008942
              2  2pz          0.632430     0.141009
              3 -2pz          0.079053     0.945364
              4 -2pz   
              5 -2pz   
              6 -2pz   
              7  2pz   
              8  2pz   
    7.4 B1g   1  2py          0.035962     1.000000
              2 -2py   
              3  2py   
              4 -2py   
              5  2py   
              6 -2py   
              7  2py   
              8 -2py   
    8.4 B1g   1  2px          0.035962     1.000000
              2 -2px   
              3 -2px   
              4  2px   
              5  2px   
              6 -2px   
              7 -2px   
              8  2px   
    9.4 B1g   1  2pz          0.035962     1.000000
              2  2pz   
              3 -2pz   
              4 -2pz   
              5 -2pz   
              6 -2pz   
              7  2pz   
              8  2pz   
    1.5 B1u   1  1s         642.418910     0.002143
              2  1s          96.798515     0.016209
              3  1s          22.091121     0.077316
              4  1s           6.201070     0.245786
              5 -1s           1.935118     0.470189
              6 -1s           0.636736     0.345471
              7 -1s    
              8 -1s    
    2.5 B1u   1  1s           2.324918    -0.035092
              2  1s           0.632430    -0.191233
              3  1s           0.079053     1.083988
              4  1s    
              5 -1s    
              6 -1s    
              7 -1s    
              8 -1s    
    3.5 B1u   1  1s           0.035962     1.000000
              2  1s    
              3  1s    
              4  1s    
              5 -1s    
              6 -1s    
              7 -1s    
              8 -1s    
    4.5 B1u   1  2pz          2.324918     0.008942
              2  2pz          0.632430     0.141009
              3  2pz          0.079053     0.945364
              4  2pz   
              5  2pz   
              6  2pz   
              7  2pz   
              8  2pz   
    5.5 B1u   1  2px          2.324918     0.008942
              2 -2px          0.632430     0.141009
              3  2px          0.079053     0.945364
              4 -2px   
              5 -2px   
              6  2px   
              7 -2px   
              8  2px   
    6.5 B1u   1  2py          2.324918     0.008942
              2 -2py          0.632430     0.141009
              3 -2py          0.079053     0.945364
              4  2py   
              5 -2py   
              6  2py   
              7  2py   
              8 -2py   
    7.5 B1u   1  2pz          0.035962     1.000000
              2  2pz   
              3  2pz   
              4  2pz   
              5  2pz   
              6  2pz   
              7  2pz   
              8  2pz   
    8.5 B1u   1  2px          0.035962     1.000000
              2 -2px   
              3  2px   
              4 -2px   
              5 -2px   
              6  2px   
              7 -2px   
              8  2px   
    9.5 B1u   1  2py          0.035962     1.000000
              2 -2py   
              3 -2py   
              4  2py   
              5 -2py   
              6  2py   
              7  2py   
              8 -2py   
    1.6 B2g   1  1s         642.418910     0.002143
              2 -1s          96.798515     0.016209
              3  1s          22.091121     0.077316
              4 -1s           6.201070     0.245786
              5 -1s           1.935118     0.470189
              6  1s           0.636736     0.345471
              7 -1s    
              8  1s    
    2.6 B2g   1  1s           2.324918    -0.035092
              2 -1s           0.632430    -0.191233
              3  1s           0.079053     1.083988
              4 -1s    
              5 -1s    
              6  1s    
              7 -1s    
              8  1s    
    3.6 B2g   1  1s           0.035962     1.000000
              2 -1s    
              3  1s    
              4 -1s    
              5 -1s    
              6  1s    
              7 -1s    
              8  1s    
    4.6 B2g   1  2pz          2.324918     0.008942
              2 -2pz          0.632430     0.141009
              3  2pz          0.079053     0.945364
              4 -2pz   
              5  2pz   
              6 -2pz   
              7  2pz   
              8 -2pz   
    5.6 B2g   1  2px          2.324918     0.008942
              2  2px          0.632430     0.141009
              3  2px          0.079053     0.945364
              4  2px   
              5 -2px   
              6 -2px   
              7 -2px   
              8 -2px   
    6.6 B2g   1  2py          2.324918     0.008942
              2  2py          0.632430     0.141009
              3 -2py          0.079053     0.945364
              4 -2py   
              5 -2py   
              6 -2py   
              7  2py   
              8  2py   
    7.6 B2g   1  2pz          0.035962     1.000000
              2 -2pz   
              3  2pz   
              4 -2pz   
              5  2pz   
              6 -2pz   
              7  2pz   
              8 -2pz   
    8.6 B2g   1  2px          0.035962     1.000000
              2  2px   
              3  2px   
              4  2px   
              5 -2px   
              6 -2px   
              7 -2px   
              8 -2px   
    9.6 B2g   1  2py          0.035962     1.000000
              2  2py   
              3 -2py   
              4 -2py   
              5 -2py   
              6 -2py   
              7  2py   
              8  2py   
    1.7 B3g   1  1s         642.418910     0.002143
              2 -1s          96.798515     0.016209
              3 -1s          22.091121     0.077316
              4  1s           6.201070     0.245786
              5 -1s           1.935118     0.470189
              6  1s           0.636736     0.345471
              7  1s    
              8 -1s    
    2.7 B3g   1  1s           2.324918    -0.035092
              2 -1s           0.632430    -0.191233
              3 -1s           0.079053     1.083988
              4  1s    
              5 -1s    
              6  1s    
              7  1s    
              8 -1s    
    3.7 B3g   1  1s           0.035962     1.000000
              2 -1s    
              3 -1s    
              4  1s    
              5 -1s    
              6  1s    
              7  1s    
              8 -1s    
    4.7 B3g   1  2pz          2.324918     0.008942
              2 -2pz          0.632430     0.141009
              3 -2pz          0.079053     0.945364
              4  2pz   
              5  2pz   
              6 -2pz   
              7 -2pz   
              8  2pz   
    5.7 B3g   1  2py          2.324918     0.008942
              2  2py          0.632430     0.141009
              3  2py          0.079053     0.945364
              4  2py   
              5 -2py   
              6 -2py   
              7 -2py   
              8 -2py   
    6.7 B3g   1  2px          2.324918     0.008942
              2  2px          0.632430     0.141009
              3 -2px          0.079053     0.945364
              4 -2px   
              5 -2px   
              6 -2px   
              7  2px   
              8  2px   
    7.7 B3g   1  2pz          0.035962     1.000000
              2 -2pz   
              3 -2pz   
              4  2pz   
              5  2pz   
              6 -2pz   
              7 -2pz   
              8  2pz   
    8.7 B3g   1  2py          0.035962     1.000000
              2  2py   
              3  2py   
              4  2py   
              5 -2py   
              6 -2py   
              7 -2py   
              8 -2py   
    9.7 B3g   1  2px          0.035962     1.000000
              2  2px   
              3 -2px   
              4 -2px   
              5 -2px   
              6 -2px   
              7  2px   
              8  2px   
    1.8 Au    1  1s         642.418910     0.002143
              2  1s          96.798515     0.016209
              3 -1s          22.091121     0.077316
              4 -1s           6.201070     0.245786
              5 -1s           1.935118     0.470189
              6 -1s           0.636736     0.345471
              7  1s    
              8  1s    
    2.8 Au    1  1s           2.324918    -0.035092
              2  1s           0.632430    -0.191233
              3 -1s           0.079053     1.083988
              4 -1s    
              5 -1s    
              6 -1s    
              7  1s    
              8  1s    
    3.8 Au    1  1s           0.035962     1.000000
              2  1s    
              3 -1s    
              4 -1s    
              5 -1s    
              6 -1s    
              7  1s    
              8  1s    
    4.8 Au    1  2pz          2.324918     0.008942
              2  2pz          0.632430     0.141009
              3 -2pz          0.079053     0.945364
              4 -2pz   
              5  2pz   
              6  2pz   
              7 -2pz   
              8 -2pz   
    5.8 Au    1  2py          2.324918     0.008942
              2 -2py          0.632430     0.141009
              3  2py          0.079053     0.945364
              4 -2py   
              5 -2py   
              6  2py   
              7 -2py   
              8  2py   
    6.8 Au    1  2px          2.324918     0.008942
              2 -2px          0.632430     0.141009
              3 -2px          0.079053     0.945364
              4  2px   
              5 -2px   
              6  2px   
              7  2px   
              8 -2px   
    7.8 Au    1  2pz          0.035962     1.000000
              2  2pz   
              3 -2pz   
              4 -2pz   
              5  2pz   
              6  2pz   
              7 -2pz   
              8 -2pz   
    8.8 Au    1  2py          0.035962     1.000000
              2 -2py   
              3  2py   
              4 -2py   
              5 -2py   
              6  2py   
              7 -2py   
              8  2py   
    9.8 Au    1  2px          0.035962     1.000000
              2 -2px   
              3 -2px   
              4  2px   
              5 -2px   
              6  2px   
              7  2px   
              8 -2px   

 NUCLEAR CHARGE:                   24
 NUMBER OF PRIMITIVE AOS:         176
 NUMBER OF SYMMETRY AOS:          176
 NUMBER OF CONTRACTIONS:           72   (    9Ag  +    9B3u +    9B2u +    9B1g +    9B1u +    9B2g +    9B3g +    9Au  )
 NUMBER OF CORE ORBITALS:           8   (    1Ag  +    1B3u +    1B2u +    1B1g +    1B1u +    1B2g +    1B3g +    1Au  )
 NUMBER OF VALENCE ORBITALS:       32   (    4Ag  +    4B3u +    4B2u +    4B1g +    4B1u +    4B2g +    4B3g +    4Au  )


 NUCLEAR REPULSION ENERGY   36.18727945

 Eigenvalues of metric

         1 0.236E-01 0.207E+00 0.293E+00 0.293E+00 0.956E+00 0.241E+01 0.382E+01 0.382E+01
         2 0.451E-02 0.101E+00 0.150E+00 0.186E+00 0.354E+00 0.968E+00 0.153E+01 0.162E+01
         3 0.451E-02 0.101E+00 0.150E+00 0.186E+00 0.354E+00 0.968E+00 0.153E+01 0.162E+01
         4 0.775E-03 0.268E-01 0.539E-01 0.110E+00 0.172E+00 0.338E+00 0.796E+00 0.964E+00
         5 0.451E-02 0.101E+00 0.150E+00 0.186E+00 0.354E+00 0.968E+00 0.153E+01 0.162E+01
         6 0.775E-03 0.268E-01 0.539E-01 0.110E+00 0.172E+00 0.338E+00 0.796E+00 0.964E+00
         7 0.775E-03 0.268E-01 0.539E-01 0.110E+00 0.172E+00 0.338E+00 0.796E+00 0.964E+00
         8 0.161E-03 0.932E-02 0.932E-02 0.480E-01 0.104E+00 0.201E+00 0.201E+00 0.930E+00


 Contracted 2-electron integrals neglected if value below      1.0D-11
 AO integral compression algorithm  1   Integral accuracy      1.0D-11

     8.126 MB (compressed) written to integral file ( 57.9%)


 NUMBER OF SORTED TWO-ELECTRON INTEGRALS:     453942.     BUFFER LENGTH:  32768
 NUMBER OF SEGMENTS:   1  SEGMENT LENGTH:     453942      RECORD LENGTH: 524288

 Memory used in sort:       1.01 MW

 SORT1 READ     1783296. AND WROTE      453942. INTEGRALS IN      2 RECORDS. CPU TIME:     0.02 SEC, REAL TIME:     0.03 SEC
 SORT2 READ      453942. AND WROTE      453942. INTEGRALS IN     31 RECORDS. CPU TIME:     0.12 SEC, REAL TIME:     0.16 SEC

 FILE SIZES:   FILE 1:    38.3 MBYTE,  FILE 4:     8.4 MBYTE,   TOTAL:     46.8 MBYTE

 OPERATOR DM      FOR CENTER  0  COORDINATES:    0.000000    0.000000    0.000000


 **********************************************************************************************************************************
 DATASETS  * FILE   NREC   LENGTH (MB)   RECORD NAMES
              1      19       32.37       500      700      610      900      950      970     1000      129      960     1100   
                                          VAR     GEOM    BASINP   SYMINP    ZMAT    AOBASIS   BASIS     P2S    ABASIS      S 
                                         1400     1410     1200     1210     1080     1600     1650     1300     1700   
                                           T        V       H0       H01     AOSYM     SMH    MOLCAS    ERIS     OPER   

              3       5       14.92       500      610      700     1000     2100   
                                          VAR    BASINP    GEOM     BASIS     RHF  

 PROGRAMS   *        TOTAL       INT   RESTART
 CPU TIMES  *         0.86      0.74      0.01
 REAL TIME  *         1.03 SEC
 DISK USED  *        62.05 MB
 **********************************************************************************************************************************


 PROGRAM * CCSD (Closed-shell coupled cluster)     Authors: C. Hampel, H.-J. Werner, 1991, M. Deegan, P.J. Knowles, 1992


 Input parameters for THRESH:

 ENERGY   =    1.00D-10
 COEFF    =    1.00D-12
 PRINTCI  =    0.000000
 THRPRINT =    0.000000

 Convergence thresholds:  THRVAR = 1.00D-24  THRDEN = 1.00D-10

 Number of core orbitals:           8 (   1   1   1   1   1   1   1   1 )
 Number of closed-shell orbitals:   4 (   1   1   1   0   1   0   0   0 )
 Number of external orbitals:      60 (   7   7   7   8   7   8   8   8 )

 Molecular orbitals read from record     2100.3  Type=RHF/CANONICAL (state 1.1)

 Number of N-1 electron functions:               0
 Number of N-2 electron functions:              10
 Number of singly external CSFs:                 0
 Number of doubly external CSFs:              3724
 Total number of CSFs:                        3725

 Length of J-op  integral file:               0.00 MB
 Length of K-op  integral file:               0.08 MB
 Length of 3-ext integral record:             0.00 MB

 Integral transformation finished. Total CPU:   0.02 sec, npass=  1  Memory used:   0.15 MW

 Reference energy:                    -59.51321462

 MP2 singlet pair energy:              -0.07480825
 MP2 triplet pair energy:              -0.04042225
 MP2 correlation energy:               -0.11523050
 MP2 total energy:                    -59.62844512

 SCS-MP2 correlation energy:           -0.11492152   (PS=  1.200000  PT=  0.333333)
 SCS-MP2 total energy:                -59.62813615

 ITER.      SQ.NORM     CORR.ENERGY   TOTAL ENERGY   ENERGY CHANGE        DEN1      VAR(S)    VAR(P)  DIIS     TIME  TIME/IT
   1      1.26679946    -0.12974923   -59.64296385    -0.01451873    -0.00703014  0.00D+00  0.66D-02  1  1     0.04     0.02
   2      1.31293101    -0.13422537   -59.64744000    -0.00447615    -0.00782889  0.00D+00  0.12D-02  2  2     0.05     0.02
   3      1.34215260    -0.13457138   -59.64778600    -0.00034600    -0.00363500  0.00D+00  0.20D-03  3  3     0.07     0.02
   4      1.35345997    -0.13470006   -59.64791469    -0.00012869    -0.00075737  0.00D+00  0.31D-04  4  4     0.08     0.02
   5      1.35828738    -0.13482176   -59.64803639    -0.00012170    -0.00024491  0.00D+00  0.39D-05  5  5     0.10     0.02
   6      1.35909341    -0.13478885   -59.64800348     0.00003291    -0.00005511  0.00D+00  0.46D-06  6  6     0.11     0.02
   7      1.35926807    -0.13479338   -59.64800800    -0.00000452    -0.00001333  0.00D+00  0.88D-07  6  1     0.12     0.02
   8      1.35930226    -0.13479605   -59.64801067    -0.00000267    -0.00000015  0.00D+00  0.11D-07  6  2     0.13     0.02
   9      1.35929979    -0.13479618   -59.64801081    -0.00000013     0.00000045  0.00D+00  0.13D-08  6  3     0.14     0.02
  10      1.35930163    -0.13479595   -59.64801057     0.00000023    -0.00000064  0.00D+00  0.16D-09  6  4     0.15     0.01
  11      1.35930273    -0.13479592   -59.64801054     0.00000003    -0.00000031  0.00D+00  0.13D-10  6  5     0.16     0.01
  12      1.35930279    -0.13479593   -59.64801055    -0.00000001    -0.00000003  0.00D+00  0.18D-11  6  6     0.17     0.01
  13      1.35930276    -0.13479593   -59.64801055     0.00000000     0.00000001  0.00D+00  0.21D-12  6  1     0.18     0.01
  14      1.35930277    -0.13479593   -59.64801056    -0.00000000     0.00000000  0.00D+00  0.26D-13  6  2     0.19     0.01
  15      1.35930279    -0.13479593   -59.64801056    -0.00000000    -0.00000000  0.00D+00  0.33D-14  6  3     0.20     0.01
  16      1.35930280    -0.13479593   -59.64801056     0.00000000    -0.00000000  0.00D+00  0.38D-15  6  4     0.21     0.01
  17      1.35930280    -0.13479593   -59.64801056     0.00000000    -0.00000000  0.00D+00  0.65D-16  6  5     0.22     0.01
  18      1.35930280    -0.13479593   -59.64801056    -0.00000000     0.00000000  0.00D+00  0.12D-16  6  6     0.23     0.01
  19      1.35930279    -0.13479593   -59.64801056    -0.00000000     0.00000000  0.00D+00  0.16D-17  6  1     0.23     0.01
  20      1.35930279    -0.13479593   -59.64801056     0.00000000     0.00000000  0.00D+00  0.20D-18  6  2     0.24     0.01
  21      1.35930279    -0.13479593   -59.64801056    -0.00000000     0.00000000  0.00D+00  0.28D-19  6  3     0.25     0.01
  22      1.35930279    -0.13479593   -59.64801056    -0.00000000     0.00000000  0.00D+00  0.43D-20  6  4     0.26     0.01
  23      1.35930279    -0.13479593   -59.64801056     0.00000000     0.00000000  0.00D+00  0.52D-21  6  5     0.27     0.01
  24      1.35930279    -0.13479593   -59.64801056     0.00000000     0.00000000  0.00D+00  0.60D-22  6  6     0.27     0.01
  25      1.35930279    -0.13479593   -59.64801056    -0.00000000     0.00000000  0.00D+00  0.72D-23  6  1     0.28     0.01
  26      1.35930279    -0.13479593   -59.64801056    -0.00000000     0.00000000  0.00D+00  0.11D-23  6  2     0.29     0.01
  27      1.35930279    -0.13479593   -59.64801056     0.00000000     0.00000000  0.00D+00  0.21D-24  6  3     0.29     0.01


 Doubles amplitudes (print threshold =  0.000E+00):

         I         J         SYM. A    SYM. B    A         B      T(IJ, AB)

         1         1         1         1         1         1     -0.01941735
         1         1         1         1         1         2      0.00000000
         1         1         1         1         1         3      0.00000000
         1         1         1         1         1         4     -0.00747679
         1         1         1         1         1         5      0.00951272
         1         1         1         1         1         6     -0.00000000
         1         1         1         1         1         7      0.00000000
         1         1         1         1         2         1      0.00000000
         1         1         1         1         2         2     -0.01941735
         1         1         1         1         2         3      0.00000000
         1         1         1         1         2         4     -0.00951272
         1         1         1         1         2         5     -0.00747679
         1         1         1         1         2         6     -0.00000000
         1         1         1         1         2         7     -0.00000000
         1         1         1         1         3         1      0.00000000
         1         1         1         1         3         2      0.00000000
         1         1         1         1         3         3     -0.04997760
         1         1         1         1         3         4      0.00000000
         1         1         1         1         3         5     -0.00000000
         1         1         1         1         3         6     -0.01580141
         1         1         1         1         3         7     -0.00149969
         1         1         1         1         4         1     -0.00747679
         1         1         1         1         4         2     -0.00951272
         1         1         1         1         4         3      0.00000000
         1         1         1         1         4         4     -0.00838835
         1         1         1         1         4         5      0.00000000
         1         1         1         1         4         6      0.00000000
         1         1         1         1         4         7     -0.00000000
         1         1         1         1         5         1      0.00951272
         1         1         1         1         5         2     -0.00747679
         1         1         1         1         5         3     -0.00000000
         1         1         1         1         5         4      0.00000000
         1         1         1         1         5         5     -0.00838835
         1         1         1         1         5         6     -0.00000000
         1         1         1         1         5         7      0.00000000
         1         1         1         1         6         1     -0.00000000
         1         1         1         1         6         2     -0.00000000
         1         1         1         1         6         3     -0.01580141
         1         1         1         1         6         4      0.00000000
         1         1         1         1         6         5     -0.00000000
         1         1         1         1         6         6     -0.00610022
         1         1         1         1         6         7     -0.00145365
         1         1         1         1         7         1      0.00000000
         1         1         1         1         7         2     -0.00000000
         1         1         1         1         7         3     -0.00149969
         1         1         1         1         7         4     -0.00000000
         1         1         1         1         7         5      0.00000000
         1         1         1         1         7         6     -0.00145365
         1         1         1         1         7         7     -0.00210287
         1         1         2         2         1         1     -0.01725915
         1         1         2         2         1         2     -0.00000000
         1         1         2         2         1         3      0.00443630
         1         1         2         2         1         4     -0.01088255
         1         1         2         2         1         5      0.00000000
         1         1         2         2         1         6     -0.00308956
         1         1         2         2         1         7     -0.00044810
         1         1         2         2         2         1     -0.00000000
         1         1         2         2         2         2     -0.01617410
         1         1         2         2         2         3     -0.00000000
         1         1         2         2         2         4      0.00000000
         1         1         2         2         2         5     -0.01172250
         1         1         2         2         2         6     -0.00000000
         1         1         2         2         2         7     -0.00000000
         1         1         2         2         3         1      0.00443630
         1         1         2         2         3         2     -0.00000000
         1         1         2         2         3         3     -0.00801412
         1         1         2         2         3         4      0.00385850
         1         1         2         2         3         5     -0.00000000
         1         1         2         2         3         6      0.00618593
         1         1         2         2         3         7      0.00152612
         1         1         2         2         4         1     -0.01088255
         1         1         2         2         4         2      0.00000000
         1         1         2         2         4         3      0.00385850
         1         1         2         2         4         4     -0.00838815
         1         1         2         2         4         5      0.00000000
         1         1         2         2         4         6     -0.00335665
         1         1         2         2         4         7     -0.00064153
         1         1         2         2         5         1      0.00000000
         1         1         2         2         5         2     -0.01172250
         1         1         2         2         5         3     -0.00000000
         1         1         2         2         5         4      0.00000000
         1         1         2         2         5         5     -0.00945891
         1         1         2         2         5         6     -0.00000000
         1         1         2         2         5         7      0.00000000
         1         1         2         2         6         1     -0.00308956
         1         1         2         2         6         2     -0.00000000
         1         1         2         2         6         3      0.00618593
         1         1         2         2         6         4     -0.00335665
         1         1         2         2         6         5     -0.00000000
         1         1         2         2         6         6     -0.00593318
         1         1         2         2         6         7     -0.00133136
         1         1         2         2         7         1     -0.00044810
         1         1         2         2         7         2     -0.00000000
         1         1         2         2         7         3      0.00152612
         1         1         2         2         7         4     -0.00064153
         1         1         2         2         7         5      0.00000000
         1         1         2         2         7         6     -0.00133136
         1         1         2         2         7         7     -0.00073689
         1         1         3         3         1         1     -0.01725915
         1         1         3         3         1         2      0.00000000
         1         1         3         3         1         3      0.00443630
         1         1         3         3         1         4     -0.01088255
         1         1         3         3         1         5      0.00000000
         1         1         3         3         1         6     -0.00308956
         1         1         3         3         1         7     -0.00044810
         1         1         3         3         2         1      0.00000000
         1         1         3         3         2         2     -0.01617410
         1         1         3         3         2         3     -0.00000000
         1         1         3         3         2         4      0.00000000
         1         1         3         3         2         5     -0.01172250
         1         1         3         3         2         6     -0.00000000
         1         1         3         3         2         7     -0.00000000
         1         1         3         3         3         1      0.00443630
         1         1         3         3         3         2     -0.00000000
         1         1         3         3         3         3     -0.00801412
         1         1         3         3         3         4      0.00385850
         1         1         3         3         3         5     -0.00000000
         1         1         3         3         3         6      0.00618593
         1         1         3         3         3         7      0.00152612
         1         1         3         3         4         1     -0.01088255
         1         1         3         3         4         2      0.00000000
         1         1         3         3         4         3      0.00385850
         1         1         3         3         4         4     -0.00838815
         1         1         3         3         4         5     -0.00000000
         1         1         3         3         4         6     -0.00335665
         1         1         3         3         4         7     -0.00064153
         1         1         3         3         5         1      0.00000000
         1         1         3         3         5         2     -0.01172250
         1         1         3         3         5         3     -0.00000000
         1         1         3         3         5         4     -0.00000000
         1         1         3         3         5         5     -0.00945891
         1         1         3         3         5         6      0.00000000
         1         1         3         3         5         7      0.00000000
         1         1         3         3         6         1     -0.00308956
         1         1         3         3         6         2     -0.00000000
         1         1         3         3         6         3      0.00618593
         1         1         3         3         6         4     -0.00335665
         1         1         3         3         6         5      0.00000000
         1         1         3         3         6         6     -0.00593318
         1         1         3         3         6         7     -0.00133136
         1         1         3         3         7         1     -0.00044810
         1         1         3         3         7         2     -0.00000000
         1         1         3         3         7         3      0.00152612
         1         1         3         3         7         4     -0.00064153
         1         1         3         3         7         5      0.00000000
         1         1         3         3         7         6     -0.00133136
         1         1         3         3         7         7     -0.00073689
         1         1         4         4         1         1     -0.01024484
         1         1         4         4         1         2      0.00885877
         1         1         4         4         1         3      0.00000000
         1         1         4         4         1         4     -0.00693036
         1         1         4         4         1         5      0.00547283
         1         1         4         4         1         6     -0.00000000
         1         1         4         4         1         7      0.00462316
         1         1         4         4         1         8      0.00067837
         1         1         4         4         2         1      0.00885877
         1         1         4         4         2         2     -0.00761707
         1         1         4         4         2         3     -0.00000000
         1         1         4         4         2         4      0.00536436
         1         1         4         4         2         5     -0.00560545
         1         1         4         4         2         6      0.00000000
         1         1         4         4         2         7     -0.00360974
         1         1         4         4         2         8     -0.00064377
         1         1         4         4         3         1      0.00000000
         1         1         4         4         3         2     -0.00000000
         1         1         4         4         3         3     -0.00115765
         1         1         4         4         3         4      0.00000000
         1         1         4         4         3         5      0.00000000
         1         1         4         4         3         6     -0.00135599
         1         1         4         4         3         7     -0.00000000
         1         1         4         4         3         8      0.00000000
         1         1         4         4         4         1     -0.00693036
         1         1         4         4         4         2      0.00536436
         1         1         4         4         4         3      0.00000000
         1         1         4         4         4         4     -0.00510821
         1         1         4         4         4         5      0.00363068
         1         1         4         4         4         6      0.00000000
         1         1         4         4         4         7      0.00423292
         1         1         4         4         4         8      0.00062954
         1         1         4         4         5         1      0.00547283
         1         1         4         4         5         2     -0.00560545
         1         1         4         4         5         3      0.00000000
         1         1         4         4         5         4      0.00363068
         1         1         4         4         5         5     -0.00510483
         1         1         4         4         5         6     -0.00000000
         1         1         4         4         5         7     -0.00303157
         1         1         4         4         5         8     -0.00065822
         1         1         4         4         6         1     -0.00000000
         1         1         4         4         6         2      0.00000000
         1         1         4         4         6         3     -0.00135599
         1         1         4         4         6         4      0.00000000
         1         1         4         4         6         5     -0.00000000
         1         1         4         4         6         6     -0.00186877
         1         1         4         4         6         7      0.00000000
         1         1         4         4         6         8      0.00000000
         1         1         4         4         7         1      0.00462316
         1         1         4         4         7         2     -0.00360974
         1         1         4         4         7         3     -0.00000000
         1         1         4         4         7         4      0.00423292
         1         1         4         4         7         5     -0.00303157
         1         1         4         4         7         6      0.00000000
         1         1         4         4         7         7     -0.00479969
         1         1         4         4         7         8     -0.00073224
         1         1         4         4         8         1      0.00067837
         1         1         4         4         8         2     -0.00064377
         1         1         4         4         8         3      0.00000000
         1         1         4         4         8         4      0.00062954
         1         1         4         4         8         5     -0.00065822
         1         1         4         4         8         6      0.00000000
         1         1         4         4         8         7     -0.00073224
         1         1         4         4         8         8     -0.00026833
         1         1         5         5         1         1     -0.01725915
         1         1         5         5         1         2     -0.00000000
         1         1         5         5         1         3      0.00443630
         1         1         5         5         1         4     -0.01088255
         1         1         5         5         1         5      0.00000000
         1         1         5         5         1         6     -0.00308956
         1         1         5         5         1         7     -0.00044810
         1         1         5         5         2         1     -0.00000000
         1         1         5         5         2         2     -0.01617410
         1         1         5         5         2         3     -0.00000000
         1         1         5         5         2         4      0.00000000
         1         1         5         5         2         5     -0.01172250
         1         1         5         5         2         6     -0.00000000
         1         1         5         5         2         7     -0.00000000
         1         1         5         5         3         1      0.00443630
         1         1         5         5         3         2     -0.00000000
         1         1         5         5         3         3     -0.00801412
         1         1         5         5         3         4      0.00385850
         1         1         5         5         3         5      0.00000000
         1         1         5         5         3         6      0.00618593
         1         1         5         5         3         7      0.00152612
         1         1         5         5         4         1     -0.01088255
         1         1         5         5         4         2      0.00000000
         1         1         5         5         4         3      0.00385850
         1         1         5         5         4         4     -0.00838815
         1         1         5         5         4         5      0.00000000
         1         1         5         5         4         6     -0.00335665
         1         1         5         5         4         7     -0.00064153
         1         1         5         5         5         1      0.00000000
         1         1         5         5         5         2     -0.01172250
         1         1         5         5         5         3      0.00000000
         1         1         5         5         5         4      0.00000000
         1         1         5         5         5         5     -0.00945891
         1         1         5         5         5         6      0.00000000
         1         1         5         5         5         7      0.00000000
         1         1         5         5         6         1     -0.00308956
         1         1         5         5         6         2     -0.00000000
         1         1         5         5         6         3      0.00618593
         1         1         5         5         6         4     -0.00335665
         1         1         5         5         6         5      0.00000000
         1         1         5         5         6         6     -0.00593318
         1         1         5         5         6         7     -0.00133136
         1         1         5         5         7         1     -0.00044810
         1         1         5         5         7         2     -0.00000000
         1         1         5         5         7         3      0.00152612
         1         1         5         5         7         4     -0.00064153
         1         1         5         5         7         5      0.00000000
         1         1         5         5         7         6     -0.00133136
         1         1         5         5         7         7     -0.00073689
         1         1         6         6         1         1     -0.01024484
         1         1         6         6         1         2      0.00885877
         1         1         6         6         1         3     -0.00000000
         1         1         6         6         1         4     -0.00693036
         1         1         6         6         1         5      0.00547283
         1         1         6         6         1         6     -0.00000000
         1         1         6         6         1         7      0.00462316
         1         1         6         6         1         8      0.00067837
         1         1         6         6         2         1      0.00885877
         1         1         6         6         2         2     -0.00761707
         1         1         6         6         2         3     -0.00000000
         1         1         6         6         2         4      0.00536436
         1         1         6         6         2         5     -0.00560545
         1         1         6         6         2         6      0.00000000
         1         1         6         6         2         7     -0.00360974
         1         1         6         6         2         8     -0.00064377
         1         1         6         6         3         1     -0.00000000
         1         1         6         6         3         2     -0.00000000
         1         1         6         6         3         3     -0.00115765
         1         1         6         6         3         4     -0.00000000
         1         1         6         6         3         5     -0.00000000
         1         1         6         6         3         6     -0.00135599
         1         1         6         6         3         7      0.00000000
         1         1         6         6         3         8      0.00000000
         1         1         6         6         4         1     -0.00693036
         1         1         6         6         4         2      0.00536436
         1         1         6         6         4         3     -0.00000000
         1         1         6         6         4         4     -0.00510821
         1         1         6         6         4         5      0.00363068
         1         1         6         6         4         6     -0.00000000
         1         1         6         6         4         7      0.00423292
         1         1         6         6         4         8      0.00062954
         1         1         6         6         5         1      0.00547283
         1         1         6         6         5         2     -0.00560545
         1         1         6         6         5         3     -0.00000000
         1         1         6         6         5         4      0.00363068
         1         1         6         6         5         5     -0.00510483
         1         1         6         6         5         6      0.00000000
         1         1         6         6         5         7     -0.00303157
         1         1         6         6         5         8     -0.00065822
         1         1         6         6         6         1     -0.00000000
         1         1         6         6         6         2      0.00000000
         1         1         6         6         6         3     -0.00135599
         1         1         6         6         6         4     -0.00000000
         1         1         6         6         6         5      0.00000000
         1         1         6         6         6         6     -0.00186877
         1         1         6         6         6         7      0.00000000
         1         1         6         6         6         8     -0.00000000
         1         1         6         6         7         1      0.00462316
         1         1         6         6         7         2     -0.00360974
         1         1         6         6         7         3      0.00000000
         1         1         6         6         7         4      0.00423292
         1         1         6         6         7         5     -0.00303157
         1         1         6         6         7         6      0.00000000
         1         1         6         6         7         7     -0.00479969
         1         1         6         6         7         8     -0.00073224
         1         1         6         6         8         1      0.00067837
         1         1         6         6         8         2     -0.00064377
         1         1         6         6         8         3      0.00000000
         1         1         6         6         8         4      0.00062954
         1         1         6         6         8         5     -0.00065822
         1         1         6         6         8         6     -0.00000000
         1         1         6         6         8         7     -0.00073224
         1         1         6         6         8         8     -0.00026833
         1         1         7         7         1         1     -0.01024484
         1         1         7         7         1         2      0.00885877
         1         1         7         7         1         3      0.00000000
         1         1         7         7         1         4     -0.00693036
         1         1         7         7         1         5      0.00547283
         1         1         7         7         1         6     -0.00000000
         1         1         7         7         1         7      0.00462316
         1         1         7         7         1         8      0.00067837
         1         1         7         7         2         1      0.00885877
         1         1         7         7         2         2     -0.00761707
         1         1         7         7         2         3     -0.00000000
         1         1         7         7         2         4      0.00536436
         1         1         7         7         2         5     -0.00560545
         1         1         7         7         2         6      0.00000000
         1         1         7         7         2         7     -0.00360974
         1         1         7         7         2         8     -0.00064377
         1         1         7         7         3         1      0.00000000
         1         1         7         7         3         2     -0.00000000
         1         1         7         7         3         3     -0.00115765
         1         1         7         7         3         4      0.00000000
         1         1         7         7         3         5      0.00000000
         1         1         7         7         3         6     -0.00135599
         1         1         7         7         3         7     -0.00000000
         1         1         7         7         3         8      0.00000000
         1         1         7         7         4         1     -0.00693036
         1         1         7         7         4         2      0.00536436
         1         1         7         7         4         3      0.00000000
         1         1         7         7         4         4     -0.00510821
         1         1         7         7         4         5      0.00363068
         1         1         7         7         4         6     -0.00000000
         1         1         7         7         4         7      0.00423292
         1         1         7         7         4         8      0.00062954
         1         1         7         7         5         1      0.00547283
         1         1         7         7         5         2     -0.00560545
         1         1         7         7         5         3      0.00000000
         1         1         7         7         5         4      0.00363068
         1         1         7         7         5         5     -0.00510483
         1         1         7         7         5         6      0.00000000
         1         1         7         7         5         7     -0.00303157
         1         1         7         7         5         8     -0.00065822
         1         1         7         7         6         1     -0.00000000
         1         1         7         7         6         2      0.00000000
         1         1         7         7         6         3     -0.00135599
         1         1         7         7         6         4     -0.00000000
         1         1         7         7         6         5      0.00000000
         1         1         7         7         6         6     -0.00186877
         1         1         7         7         6         7      0.00000000
         1         1         7         7         6         8     -0.00000000
         1         1         7         7         7         1      0.00462316
         1         1         7         7         7         2     -0.00360974
         1         1         7         7         7         3     -0.00000000
         1         1         7         7         7         4      0.00423292
         1         1         7         7         7         5     -0.00303157
         1         1         7         7         7         6      0.00000000
         1         1         7         7         7         7     -0.00479969
         1         1         7         7         7         8     -0.00073224
         1         1         7         7         8         1      0.00067837
         1         1         7         7         8         2     -0.00064377
         1         1         7         7         8         3      0.00000000
         1         1         7         7         8         4      0.00062954
         1         1         7         7         8         5     -0.00065822
         1         1         7         7         8         6     -0.00000000
         1         1         7         7         8         7     -0.00073224
         1         1         7         7         8         8     -0.00026833
         1         1         8         8         1         1     -0.00254062
         1         1         8         8         1         2     -0.00000000
         1         1         8         8         1         3      0.00000000
         1         1         8         8         1         4     -0.00304248
         1         1         8         8         1         5      0.00000000
         1         1         8         8         1         6     -0.00000000
         1         1         8         8         1         7     -0.00206929
         1         1         8         8         1         8      0.00026964
         1         1         8         8         2         1     -0.00000000
         1         1         8         8         2         2     -0.00005063
         1         1         8         8         2         3     -0.00000000
         1         1         8         8         2         4      0.00000000
         1         1         8         8         2         5      0.00020401
         1         1         8         8         2         6      0.00004972
         1         1         8         8         2         7      0.00000000
         1         1         8         8         2         8      0.00000000
         1         1         8         8         3         1      0.00000000
         1         1         8         8         3         2     -0.00000000
         1         1         8         8         3         3     -0.00005063
         1         1         8         8         3         4     -0.00000000
         1         1         8         8         3         5      0.00004972
         1         1         8         8         3         6     -0.00020401
         1         1         8         8         3         7     -0.00000000
         1         1         8         8         3         8     -0.00000000
         1         1         8         8         4         1     -0.00304248
         1         1         8         8         4         2      0.00000000
         1         1         8         8         4         3     -0.00000000
         1         1         8         8         4         4     -0.00386052
         1         1         8         8         4         5     -0.00000000
         1         1         8         8         4         6     -0.00000000
         1         1         8         8         4         7     -0.00307192
         1         1         8         8         4         8      0.00031548
         1         1         8         8         5         1      0.00000000
         1         1         8         8         5         2      0.00020401
         1         1         8         8         5         3      0.00004972
         1         1         8         8         5         4     -0.00000000
         1         1         8         8         5         5     -0.00054148
         1         1         8         8         5         6      0.00000000
         1         1         8         8         5         7      0.00000000
         1         1         8         8         5         8      0.00000000
         1         1         8         8         6         1     -0.00000000
         1         1         8         8         6         2      0.00004972
         1         1         8         8         6         3     -0.00020401
         1         1         8         8         6         4     -0.00000000
         1         1         8         8         6         5      0.00000000
         1         1         8         8         6         6     -0.00054148
         1         1         8         8         6         7      0.00000000
         1         1         8         8         6         8      0.00000000
         1         1         8         8         7         1     -0.00206929
         1         1         8         8         7         2      0.00000000
         1         1         8         8         7         3     -0.00000000
         1         1         8         8         7         4     -0.00307192
         1         1         8         8         7         5      0.00000000
         1         1         8         8         7         6      0.00000000
         1         1         8         8         7         7     -0.00348104
         1         1         8         8         7         8      0.00033310
         1         1         8         8         8         1      0.00026964
         1         1         8         8         8         2      0.00000000
         1         1         8         8         8         3     -0.00000000
         1         1         8         8         8         4      0.00031548
         1         1         8         8         8         5      0.00000000
         1         1         8         8         8         6      0.00000000
         1         1         8         8         8         7      0.00033310
         1         1         8         8         8         8     -0.00016721
         2         2         1         1         1         1     -0.05772224
         2         2         1         1         1         2      0.02723203
         2         2         1         1         1         3      0.00968067
         2         2         1         1         1         4     -0.00909352
         2         2         1         1         1         5      0.01489470
         2         2         1         1         1         6      0.00459495
         2         2         1         1         1         7     -0.00122982
         2         2         1         1         2         1      0.02723203
         2         2         1         1         2         2     -0.08676052
         2         2         1         1         2         3     -0.01613204
         2         2         1         1         2         4     -0.01407789
         2         2         1         1         2         5     -0.01367830
         2         2         1         1         2         6     -0.00765711
         2         2         1         1         2         7      0.00204939
         2         2         1         1         3         1      0.00968067
         2         2         1         1         3         2     -0.01613204
         2         2         1         1         3         3     -0.03689185
         2         2         1         1         3         4      0.00277800
         2         2         1         1         3         5      0.00728787
         2         2         1         1         3         6     -0.00976204
         2         2         1         1         3         7      0.00153751
         2         2         1         1         4         1     -0.00909352
         2         2         1         1         4         2     -0.01407789
         2         2         1         1         4         3      0.00277800
         2         2         1         1         4         4     -0.00682537
         2         2         1         1         4         5     -0.00110548
         2         2         1         1         4         6     -0.00033444
         2         2         1         1         4         7     -0.00049401
         2         2         1         1         5         1      0.01489470
         2         2         1         1         5         2     -0.01367830
         2         2         1         1         5         3      0.00728787
         2         2         1         1         5         4     -0.00110548
         2         2         1         1         5         5     -0.00930413
         2         2         1         1         5         6     -0.00087738
         2         2         1         1         5         7     -0.00129601
         2         2         1         1         6         1      0.00459495
         2         2         1         1         6         2     -0.00765711
         2         2         1         1         6         3     -0.00976204
         2         2         1         1         6         4     -0.00033444
         2         2         1         1         6         5     -0.00087738
         2         2         1         1         6         6     -0.00426400
         2         2         1         1         6         7     -0.00026364
         2         2         1         1         7         1     -0.00122982
         2         2         1         1         7         2      0.00204939
         2         2         1         1         7         3      0.00153751
         2         2         1         1         7         4     -0.00049401
         2         2         1         1         7         5     -0.00129601
         2         2         1         1         7         6     -0.00026364
         2         2         1         1         7         7     -0.00105047
         2         2         2         2         1         1     -0.04134806
         2         2         2         2         1         2     -0.00000000
         2         2         2         2         1         3      0.00811727
         2         2         2         2         1         4     -0.01612492
         2         2         2         2         1         5     -0.00000000
         2         2         2         2         1         6     -0.00017770
         2         2         2         2         1         7      0.00110719
         2         2         2         2         2         1     -0.00000000
         2         2         2         2         2         2     -0.01168543
         2         2         2         2         2         3     -0.00000000
         2         2         2         2         2         4      0.00000000
         2         2         2         2         2         5     -0.00648222
         2         2         2         2         2         6      0.00000000
         2         2         2         2         2         7      0.00000000
         2         2         2         2         3         1      0.00811727
         2         2         2         2         3         2     -0.00000000
         2         2         2         2         3         3     -0.01310728
         2         2         2         2         3         4      0.00716783
         2         2         2         2         3         5      0.00000000
         2         2         2         2         3         6      0.00284711
         2         2         2         2         3         7      0.00306897
         2         2         2         2         4         1     -0.01612492
         2         2         2         2         4         2      0.00000000
         2         2         2         2         4         3      0.00716783
         2         2         2         2         4         4     -0.01033873
         2         2         2         2         4         5      0.00000000
         2         2         2         2         4         6     -0.00297782
         2         2         2         2         4         7     -0.00062707
         2         2         2         2         5         1     -0.00000000
         2         2         2         2         5         2     -0.00648222
         2         2         2         2         5         3      0.00000000
         2         2         2         2         5         4      0.00000000
         2         2         2         2         5         5     -0.00521367
         2         2         2         2         5         6     -0.00000000
         2         2         2         2         5         7      0.00000000
         2         2         2         2         6         1     -0.00017770
         2         2         2         2         6         2      0.00000000
         2         2         2         2         6         3      0.00284711
         2         2         2         2         6         4     -0.00297782
         2         2         2         2         6         5     -0.00000000
         2         2         2         2         6         6     -0.00254037
         2         2         2         2         6         7     -0.00105296
         2         2         2         2         7         1      0.00110719
         2         2         2         2         7         2      0.00000000
         2         2         2         2         7         3      0.00306897
         2         2         2         2         7         4     -0.00062707
         2         2         2         2         7         5      0.00000000
         2         2         2         2         7         6     -0.00105296
         2         2         2         2         7         7     -0.00180954
         2         2         3         3         1         1     -0.00320028
         2         2         3         3         1         2     -0.00090856
         2         2         3         3         1         3      0.00040526
         2         2         3         3         1         4     -0.00168625
         2         2         3         3         1         5      0.00276801
         2         2         3         3         1         6     -0.00104875
         2         2         3         3         1         7     -0.00083789
         2         2         3         3         2         1     -0.00090856
         2         2         3         3         2         2     -0.01148400
         2         2         3         3         2         3     -0.00881597
         2         2         3         3         2         4     -0.00138257
         2         2         3         3         2         5     -0.00698261
         2         2         3         3         2         6      0.00470702
         2         2         3         3         2         7      0.00037284
         2         2         3         3         3         1      0.00040526
         2         2         3         3         3         2     -0.00881597
         2         2         3         3         3         3     -0.00529756
         2         2         3         3         3         4     -0.00105905
         2         2         3         3         3         5     -0.00664689
         2         2         3         3         3         6      0.00430286
         2         2         3         3         3         7      0.00031653
         2         2         3         3         4         1     -0.00168625
         2         2         3         3         4         2     -0.00138257
         2         2         3         3         4         3     -0.00105905
         2         2         3         3         4         4     -0.00132945
         2         2         3         3         4         5      0.00029443
         2         2         3         3         4         6      0.00033412
[...]
         4         3         4         6         8         7     -0.00023065
         4         3         4         6         8         8     -0.00013034
         4         3         5         3         1         1     -0.02108457
         4         3         5         3         1         2     -0.00684845
         4         3         5         3         1         3      0.01171286
         4         3         5         3         1         4     -0.01035722
         4         3         5         3         1         5     -0.00666344
         4         3         5         3         1         6     -0.00705572
         4         3         5         3         1         7     -0.00161552
         4         3         5         3         2         1     -0.00684845
         4         3         5         3         2         2     -0.00804585
         4         3         5         3         2         3     -0.00347879
         4         3         5         3         2         4     -0.00055419
         4         3         5         3         2         5     -0.00447843
         4         3         5         3         2         6      0.00299069
         4         3         5         3         2         7      0.00061319
         4         3         5         3         3         1      0.01171286
         4         3         5         3         3         2     -0.00347879
         4         3         5         3         3         3     -0.00245931
         4         3         5         3         3         4      0.00375600
         4         3         5         3         3         5     -0.00012350
         4         3         5         3         3         6      0.00109019
         4         3         5         3         3         7      0.00064250
         4         3         5         3         4         1     -0.01035722
         4         3         5         3         4         2     -0.00055419
         4         3         5         3         4         3      0.00375600
         4         3         5         3         4         4     -0.00705265
         4         3         5         3         4         5     -0.00156366
         4         3         5         3         4         6     -0.00345730
         4         3         5         3         4         7     -0.00057959
         4         3         5         3         5         1     -0.00666344
         4         3         5         3         5         2     -0.00447843
         4         3         5         3         5         3     -0.00012350
         4         3         5         3         5         4     -0.00156366
         4         3         5         3         5         5     -0.00366957
         4         3         5         3         5         6      0.00169699
         4         3         5         3         5         7      0.00026370
         4         3         5         3         6         1     -0.00705572
         4         3         5         3         6         2      0.00299069
         4         3         5         3         6         3      0.00109019
         4         3         5         3         6         4     -0.00345730
         4         3         5         3         6         5      0.00169699
         4         3         5         3         6         6     -0.00066767
         4         3         5         3         6         7      0.00005684
         4         3         5         3         7         1     -0.00161552
         4         3         5         3         7         2      0.00061319
         4         3         5         3         7         3      0.00064250
         4         3         5         3         7         4     -0.00057959
         4         3         5         3         7         5      0.00026370
         4         3         5         3         7         6      0.00005684
         4         3         5         3         7         7     -0.00033174
         4         3         6         4         1         1     -0.02249143
         4         3         6         4         1         2      0.00183379
         4         3         6         4         1         3     -0.00032340
         4         3         6         4         1         4     -0.01115859
         4         3         6         4         1         5     -0.00258122
         4         3         6         4         1         6     -0.00097334
         4         3         6         4         1         7      0.00608916
         4         3         6         4         1         8      0.00080252
         4         3         6         4         2         1      0.00183379
         4         3         6         4         2         2     -0.00046044
         4         3         6         4         2         3     -0.00131195
         4         3         6         4         2         4      0.00364768
         4         3         6         4         2         5      0.00001672
         4         3         6         4         2         6     -0.00064968
         4         3         6         4         2         7     -0.00345417
         4         3         6         4         2         8     -0.00041563
         4         3         6         4         3         1     -0.00032340
         4         3         6         4         3         2     -0.00131195
         4         3         6         4         3         3     -0.00067186
         4         3         6         4         3         4     -0.00118317
         4         3         6         4         3         5     -0.00099678
         4         3         6         4         3         6     -0.00063221
         4         3         6         4         3         7      0.00092156
         4         3         6         4         3         8      0.00010420
         4         3         6         4         4         1     -0.01115859
         4         3         6         4         4         2      0.00364768
         4         3         6         4         4         3     -0.00118317
         4         3         6         4         4         4     -0.00614976
         4         3         6         4         4         5      0.00048966
         4         3         6         4         4         6     -0.00143881
         4         3         6         4         4         7      0.00378137
         4         3         6         4         4         8      0.00052026
         4         3         6         4         5         1     -0.00258122
         4         3         6         4         5         2      0.00001672
         4         3         6         4         5         3     -0.00099678
         4         3         6         4         5         4      0.00048966
         4         3         6         4         5         5     -0.00105674
         4         3         6         4         5         6     -0.00095595
         4         3         6         4         5         7     -0.00191808
         4         3         6         4         5         8     -0.00018421
         4         3         6         4         6         1     -0.00097334
         4         3         6         4         6         2     -0.00064968
         4         3         6         4         6         3     -0.00063221
         4         3         6         4         6         4     -0.00143881
         4         3         6         4         6         5     -0.00095595
         4         3         6         4         6         6     -0.00099089
         4         3         6         4         6         7      0.00136754
         4         3         6         4         6         8      0.00020280
         4         3         6         4         7         1      0.00608916
         4         3         6         4         7         2     -0.00345417
         4         3         6         4         7         3      0.00092156
         4         3         6         4         7         4      0.00378137
         4         3         6         4         7         5     -0.00191808
         4         3         6         4         7         6      0.00136754
         4         3         6         4         7         7     -0.00306601
         4         3         6         4         7         8     -0.00041987
         4         3         6         4         8         1      0.00080252
         4         3         6         4         8         2     -0.00041563
         4         3         6         4         8         3      0.00010420
         4         3         6         4         8         4      0.00052026
         4         3         6         4         8         5     -0.00018421
         4         3         6         4         8         6      0.00020280
         4         3         6         4         8         7     -0.00041987
         4         3         6         4         8         8     -0.00019270
         4         3         7         1         1         1     -0.00500883
         4         3         7         1         1         2      0.05958794
         4         3         7         1         1         3     -0.02322409
         4         3         7         1         1         4      0.01204189
         4         3         7         1         1         5      0.01435495
         4         3         7         1         1         6     -0.01122347
         4         3         7         1         1         7     -0.00212061
         4         3         7         1         2         1      0.00591044
         4         3         7         1         2         2     -0.03033119
         4         3         7         1         2         3     -0.00136792
         4         3         7         1         2         4     -0.00741835
         4         3         7         1         2         5     -0.00927114
         4         3         7         1         2         6      0.00266252
         4         3         7         1         2         7      0.00120352
         4         3         7         1         3         1     -0.01016479
         4         3         7         1         3         2     -0.00584771
         4         3         7         1         3         3     -0.00088488
         4         3         7         1         3         4     -0.00187210
         4         3         7         1         3         5      0.00112325
         4         3         7         1         3         6     -0.00062293
         4         3         7         1         3         7     -0.00045965
         4         3         7         1         4         1      0.00167173
         4         3         7         1         4         2      0.01354699
         4         3         7         1         4         3     -0.00053436
         4         3         7         1         4         4      0.00522543
         4         3         7         1         4         5      0.00410263
         4         3         7         1         4         6     -0.00320504
         4         3         7         1         4         7     -0.00151139
         4         3         7         1         5         1      0.00267182
         4         3         7         1         5         2     -0.01266790
         4         3         7         1         5         3     -0.00837857
         4         3         7         1         5         4     -0.00416887
         4         3         7         1         5         5     -0.00501397
         4         3         7         1         5         6     -0.00131905
         4         3         7         1         5         7      0.00075374
         4         3         7         1         6         1     -0.00829309
         4         3         7         1         6         2     -0.00458510
         4         3         7         1         6         3     -0.00064214
         4         3         7         1         6         4     -0.00206510
         4         3         7         1         6         5      0.00140405
         4         3         7         1         6         6     -0.00077088
         4         3         7         1         6         7     -0.00047431
         4         3         7         1         7         1     -0.00318873
         4         3         7         1         7         2     -0.00179535
         4         3         7         1         7         3     -0.00523424
         4         3         7         1         7         4     -0.00240717
         4         3         7         1         7         5     -0.00041574
         4         3         7         1         7         6     -0.00040601
         4         3         7         1         7         7      0.00084293
         4         3         7         1         8         1     -0.00038582
         4         3         7         1         8         2     -0.00036643
         4         3         7         1         8         3     -0.00067733
         4         3         7         1         8         4     -0.00050914
         4         3         7         1         8         5     -0.00024481
         4         3         7         1         8         6      0.00008300
         4         3         7         1         8         7      0.00033895
         4         3         8         2         1         1     -0.00258457
         4         3         8         2         1         2     -0.00389621
         4         3         8         2         1         3     -0.00365683
         4         3         8         2         1         4     -0.00209484
         4         3         8         2         1         5     -0.00166875
         4         3         8         2         1         6      0.00213001
         4         3         8         2         1         7      0.00032874
         4         3         8         2         2         1     -0.00015400
         4         3         8         2         2         2      0.00095927
         4         3         8         2         2         3     -0.00009014
         4         3         8         2         2         4     -0.00022040
         4         3         8         2         2         5      0.00047989
         4         3         8         2         2         6      0.00003731
         4         3         8         2         2         7      0.00011271
         4         3         8         2         3         1      0.00066121
         4         3         8         2         3         2     -0.00002390
         4         3         8         2         3         3      0.00091314
         4         3         8         2         3         4      0.00043666
         4         3         8         2         3         5      0.00000040
         4         3         8         2         3         6     -0.00067901
         4         3         8         2         3         7     -0.00000135
         4         3         8         2         4         1     -0.00049878
         4         3         8         2         4         2     -0.00298490
         4         3         8         2         4         3     -0.00411686
         4         3         8         2         4         4     -0.00166805
         4         3         8         2         4         5     -0.00193072
         4         3         8         2         4         6      0.00295729
         4         3         8         2         4         7      0.00049406
         4         3         8         2         5         1     -0.00019533
         4         3         8         2         5         2     -0.00128748
         4         3         8         2         5         3      0.00001318
         4         3         8         2         5         4      0.00009759
         4         3         8         2         5         5     -0.00086956
         4         3         8         2         5         6      0.00005673
         4         3         8         2         5         7     -0.00006589
         4         3         8         2         6         1      0.00065338
         4         3         8         2         6         2     -0.00030724
         4         3         8         2         6         3      0.00129100
         4         3         8         2         6         4      0.00068169
         4         3         8         2         6         5     -0.00012307
         4         3         8         2         6         6     -0.00132461
         4         3         8         2         6         7     -0.00014017
         4         3         8         2         7         1      0.00160869
         4         3         8         2         7         2     -0.00119110
         4         3         8         2         7         3     -0.00267199
         4         3         8         2         7         4      0.00033613
         4         3         8         2         7         5     -0.00126041
         4         3         8         2         7         6      0.00243873
         4         3         8         2         7         7      0.00046702
         4         3         8         2         8         1     -0.00006125
         4         3         8         2         8         2      0.00017395
         4         3         8         2         8         3      0.00029232
         4         3         8         2         8         4      0.00008827
         4         3         8         2         8         5      0.00015038
         4         3         8         2         8         6     -0.00028231
         4         3         8         2         8         7     -0.00015218


 RESULTS
 =======

  Reference energy                    -59.513214624826
  CCD singlet pair energy              -0.099659163494
  CCD triplet pair energy              -0.035136768642
  CCD correlation energy               -0.134795932136

 !CCD total energy                    -59.648010556962

 Timing summary (sec):

 STEP                 CPU(USER)    SYS     CPU(TOT)    WALL
 Transformation          0.02      0.00      0.02      0.02
 CCSD iterations         0.29      0.04      0.33      0.33

 Program statistics:

 Available memory in ccsd:                39999136
 Min. memory needed in ccsd:                 19877
 Max. memory used in ccsd:                   22129
 Max. memory used in cckext:                 50297 (27 integral passes)



 **********************************************************************************************************************************
 DATASETS  * FILE   NREC   LENGTH (MB)   RECORD NAMES
              1      20       32.93       500      700      610      900      950      970     1000      129      960     1100   
                                          VAR     GEOM    BASINP   SYMINP    ZMAT    AOBASIS   BASIS     P2S    ABASIS      S 
                                         1400     1410     1200     1210     1080     1600     1650     1300     1700     1380   
                                           T        V       H0       H01     AOSYM     SMH    MOLCAS    ERIS     OPER     JKOP   

              3       5       14.92       500      610      700     1000     2100   
                                          VAR    BASINP    GEOM     BASIS     RHF  

 PROGRAMS   *        TOTAL      CCSD       INT   RESTART
 CPU TIMES  *         1.24      0.38      0.74      0.01
 REAL TIME  *         1.45 SEC
 DISK USED  *        62.05 MB
 **********************************************************************************************************************************
 Molecular orbitals read from record     2100.3  Type=RHF/CANONICAL (state 1.1)
 Occupation numbers read from record     2100.3  Type=RHF/RHF (state 1.1)
 Orbital energies read from record       2100.3  Type=RHF/CANONICAL (state 1.1)
 Redundancy group numbers read from rec  2100.3  Type=RHF/RHF (state 1.1)

 CCSD/6-31G energy=    -59.648010556962

            CCSD
    -59.64801056
 **********************************************************************************************************************************
 Molpro calculation terminated
