
 Primary working directories    : /scr/yuriaoto/job.023518/molpro.FcwKHPl82N
 Secondary working directories  : /scr/yuriaoto/job.023518/molpro.FcwKHPl82N
 Wavefunction directory         : /scr/yuriaoto/job.023518/
 Main file repository           : /scr/yuriaoto/job.023518/molpro.FcwKHPl82N/

 id        : yuriaoto

 Nodes             nprocs
 t-rex.ufabc.int.br    1

 Using customized tuning parameters: mindgm=8; mindgv=16; mindgc=1; mindgr=1; noblas=0; minvec=7
 default implementation of scratch files=df  


 Variables initialized (933), CPU time= 0.00 sec
 ***,
 memory,40,m
 gprint,orbital,basis,civector
 gthresh,thrprint=0,printci=0.0
 file,3,wfu.dat,old
 
 {cisd,CC_NORM_MAX=10000.0
 thresh,printci=0.0,ENERGY=1.0E-10,COEFF=1.0E-12
 print,ref=1
 core,0
 wf,24,1,0;
 }
 
 Commands  initialized (760), CPU time= 0.01 sec, 617 directives.
 Default parameters read. Elapsed time= 0.03 sec

 Checking input...
 Passed
1


                                         ***  PROGRAM SYSTEM MOLPRO  ***
                                       Copyright, TTI GmbH Stuttgart, 2015
                                    Version 2019.2 linked Abr  7 2019 15:10:35


 **********************************************************************************************************************************
 LABEL *                                                                                 
  64 bit serial version                                                                  DATE: 02-Jun-20          TIME: 01:04:38  
 **********************************************************************************************************************************

 SHA1:             3a8a58c585c929645742fb5a1b7541a4ad1da699
 **********************************************************************************************************************************


 THRESHOLDS:

 ZERO    =  1.00D-12  ONEINT  =  1.00D-12  TWOINT  =  1.00D-11  PREFAC  =  1.00D-14  XXXXXX  =  1.00D-09  EORDER  =  1.00D-04
 ENERGY  =  0.00D+00  ETEST   =  0.00D+00  EDENS   =  0.00D+00  THRDEDEF=  1.00D-06  GRADIENT=  1.00D-02  STEP    =  1.00D-03
 ORBITAL =  1.00D-05  CIVEC   =  1.00D-05  COEFF   =  1.00D-04  PRINTCI =  0.00D+00  PUNCHCI =  9.90D+01  OPTGRAD =  3.00D-04
 OPTENERG=  1.00D-06  OPTSTEP =  3.00D-04  THRGRAD =  1.00D-10  COMPRESS=  1.00D-11  VARMIN  =  1.00D-07  VARMAX  =  1.00D-03
 THRDOUB =  0.00D+00  THRDIV  =  1.00D-05  THRRED  =  1.00D-07  THRPSP  =  1.00D+00  THRDC   =  1.00D-10  THRCS   =  1.00D-10
 THRNRM  =  1.00D-08  THREQ   =  0.00D+00  THRDE   =  1.00D+00  THRREF  =  1.00D-05  SPARFAC =  1.00D+00  THRDLP  =  1.00D-07
 THRDIA  =  1.00D-10  THRDLS  =  1.00D-07  THRGPS  =  0.00D+00  THRKEX  =  0.00D+00  THRDIS  =  2.00D-01  THRVAR  =  1.00D-10
 THRLOC  =  1.00D-06  THRGAP  =  1.00D-06  THRLOCT = -1.00D+00  THRGAPT = -1.00D+00  THRORB  =  1.00D-06  THRMLTP =  0.00D+00
 THRCPQCI=  1.00D-10  KEXTA   =  0.00D+00  THRCOARS=  0.00D+00  SYMTOL  =  1.00D-06  GRADTOL =  1.00D-06  THROVL  =  1.00D-08
 THRORTH =  1.00D-08  GRID    =  1.00D-06  GRIDMAX =  1.00D-03  DTMAX   =  0.00D+00  THROCCDE=  1.00D-01  THROCCDE=  1.00D-01
 THRPRINT=  0.00D+00


 Variable memory set to   40000000 words,  buffer space 



 Permanent file  3  wfu.dat  assigned.  Implementation=df    Size= 14.23 MB


 PROGRAM * RESTART 


 Reading variables from file 3

 _FNUC           =      0.00000000
 _BASIS          =    6-31G
 _NELEC          =     24.00000000
 _PROGRAM        =    RHF-SCF
 _DMZ            =      0.00000000
 _DMX_SCF        =      0.00000000
 _DMY_SCF        =      0.00000000
 _DMZ_SCF        =      0.00000000
 _HOMO           =      2.20000000
 _EHOMO          =     -0.16514840
 _LUMO           =      2.40000000
 _ELUMO          =      0.01204027
 _ENERGY         =    -59.51321462
 _ENERGY_METHOD  =    RHF
 _ENERGY_BASIS   =    6-31G
 _ENUC           =     36.18727945
 _EPS1(1:9)      =     -2.44606597    -0.27154166     0.01387583     0.01387583     0.01974738     0.16967502
                        0.16967502     0.17748779     0.65577377
 _EPS2(1:9)      =     -2.44595365    -0.16514840     0.06583970     0.08024304     0.10918713     0.20947133
                        0.21026523     0.32305975     0.77430831
 _EPS3(1:9)      =     -2.44595365    -0.16514840     0.06583970     0.08024304     0.10918713     0.20947133
                        0.21026523     0.32305975     0.77430831
 _EPS4(1:9)      =     -2.44586539     0.01204027     0.11857342     0.14587398     0.15178986     0.25645901
                        0.35040202     0.43718871     1.07484211
 _EPS5(1:9)      =     -2.44595365    -0.16514840     0.06583970     0.08024304     0.10918713     0.20947133
                        0.21026523     0.32305975     0.77430831
 _EPS6(1:9)      =     -2.44586539     0.01204027     0.11857342     0.14587398     0.15178986     0.25645901
                        0.35040202     0.43718871     1.07484211
 _EPS7(1:9)      =     -2.44586539     0.01204027     0.11857342     0.14587398     0.15178986     0.25645901
                        0.35040202     0.43718871     1.07484211
 _EPS8(1:9)      =     -2.44578039     0.06692471     0.18257294     0.18257294     0.19933103     0.41404808
                        0.41404808     0.60754299     1.43040756
 _IPROC_MPP      =      0.00000000
 _IPROC_MPPX     =      0.00000000
 _ORBITAL        =   2100.30000000
 _STATUS         =      1.00000000
 _DATE           =    23-Mar-20
 _LASTORB        =    RHF
 _OUTPUT         =    /scr/yuriaoto/job.022842/RHF.xml
 _PGROUP         =    D2h 
 _TIME           =    15:18:14
 R               =      1.50000000

 Geometry written to block  1 of record 700


 **********************************************************************************************************************************
 DATASETS  * FILE   NREC   LENGTH (MB)   RECORD NAMES
              3       5       14.92       500      610      700     1000     2100   
                                          VAR    BASINP    GEOM     BASIS     RHF  

 PROGRAMS   *        TOTAL   RESTART
 CPU TIMES  *         0.09      0.01
 REAL TIME  *         0.12 SEC
 DISK USED  *        27.01 MB
 **********************************************************************************************************************************


 Recomputing integrals since basis changed


 Using spherical harmonics

 Library entry LI     S 6-31G                selected for orbital group  1
 Library entry LI     P 6-31G                selected for orbital group  1


 PROGRAM * SEWARD (Integral evaluation for generally contracted gaussian basis sets)     Author: Roland Lindh, 1990

 Geometry written to block  1 of record 700


 Point group  D2h 



 ATOMIC COORDINATES

 NR  ATOM    CHARGE       X              Y              Z

   1  LI1     3.00    2.834589187    2.834589187    2.834589187
   2  LI2     3.00   -2.834589187   -2.834589187    2.834589187
   3  LI3     3.00    2.834589187   -2.834589187    2.834589187
   4  LI4     3.00   -2.834589187    2.834589187    2.834589187
   5  LI5     3.00    2.834589187    2.834589187   -2.834589187
   6  LI6     3.00   -2.834589187   -2.834589187   -2.834589187
   7  LI7     3.00    2.834589187   -2.834589187   -2.834589187
   8  LI8     3.00   -2.834589187    2.834589187   -2.834589187

 Bond lengths in Bohr (Angstrom)

 1-3  5.669178374  1-4  5.669178374  1-5  5.669178374  2-3  5.669178374  2-4  5.669178374
     ( 3.000000000)     ( 3.000000000)     ( 3.000000000)     ( 3.000000000)     ( 3.000000000)

 2-6  5.669178374  3-7  5.669178374  4-8  5.669178374  5-7  5.669178374  5-8  5.669178374
     ( 3.000000000)     ( 3.000000000)     ( 3.000000000)     ( 3.000000000)     ( 3.000000000)

 6-7  5.669178374  6-8  5.669178374
     ( 3.000000000)     ( 3.000000000)

 Bond angles

  1-3-2   90.00000000   1-3-7   90.00000000   1-4-2   90.00000000   1-4-8   90.00000000

  1-5-7   90.00000000   1-5-8   90.00000000   2-3-7   90.00000000   2-4-8   90.00000000

  2-6-7   90.00000000   2-6-8   90.00000000   3-1-4   90.00000000   3-1-5   90.00000000

  3-2-4   90.00000000   3-2-6   90.00000000   3-7-5   90.00000000   3-7-6   90.00000000

  4-1-5   90.00000000   4-2-6   90.00000000   4-8-5   90.00000000   4-8-6   90.00000000

  5-7-6   90.00000000   5-8-6   90.00000000   7-5-8   90.00000000   7-6-8   90.00000000


 BASIS DATA

   Nr Sym  Nuc  Type         Exponents   Contraction coefficients

    1.1 Ag    1  1s         642.418910     0.002143
              2  1s          96.798515     0.016209
              3  1s          22.091121     0.077316
              4  1s           6.201070     0.245786
              5  1s           1.935118     0.470189
              6  1s           0.636736     0.345471
              7  1s    
              8  1s    
    2.1 Ag    1  1s           2.324918    -0.035092
              2  1s           0.632430    -0.191233
              3  1s           0.079053     1.083988
              4  1s    
              5  1s    
              6  1s    
              7  1s    
              8  1s    
    3.1 Ag    1  1s           0.035962     1.000000
              2  1s    
              3  1s    
              4  1s    
              5  1s    
              6  1s    
              7  1s    
              8  1s    
    4.1 Ag    1  2px          2.324918     0.008942
              2 -2px          0.632430     0.141009
              3  2px          0.079053     0.945364
              4 -2px   
              5  2px   
              6 -2px   
              7  2px   
              8 -2px   
    5.1 Ag    1  2py          2.324918     0.008942
              2 -2py          0.632430     0.141009
              3 -2py          0.079053     0.945364
              4  2py   
              5  2py   
              6 -2py   
              7 -2py   
              8  2py   
    6.1 Ag    1  2pz          2.324918     0.008942
              2  2pz          0.632430     0.141009
              3  2pz          0.079053     0.945364
              4  2pz   
              5 -2pz   
              6 -2pz   
              7 -2pz   
              8 -2pz   
    7.1 Ag    1  2px          0.035962     1.000000
              2 -2px   
              3  2px   
              4 -2px   
              5  2px   
              6 -2px   
              7  2px   
              8 -2px   
    8.1 Ag    1  2py          0.035962     1.000000
              2 -2py   
              3 -2py   
              4  2py   
              5  2py   
              6 -2py   
              7 -2py   
              8  2py   
    9.1 Ag    1  2pz          0.035962     1.000000
              2  2pz   
              3  2pz   
              4  2pz   
              5 -2pz   
              6 -2pz   
              7 -2pz   
              8 -2pz   
    1.2 B3u   1  1s         642.418910     0.002143
              2 -1s          96.798515     0.016209
              3  1s          22.091121     0.077316
              4 -1s           6.201070     0.245786
              5  1s           1.935118     0.470189
              6 -1s           0.636736     0.345471
              7  1s    
              8 -1s    
    2.2 B3u   1  1s           2.324918    -0.035092
              2 -1s           0.632430    -0.191233
              3  1s           0.079053     1.083988
              4 -1s    
              5  1s    
              6 -1s    
              7  1s    
              8 -1s    
    3.2 B3u   1  1s           0.035962     1.000000
              2 -1s    
              3  1s    
              4 -1s    
              5  1s    
              6 -1s    
              7  1s    
              8 -1s    
    4.2 B3u   1  2px          2.324918     0.008942
              2  2px          0.632430     0.141009
              3  2px          0.079053     0.945364
              4  2px   
              5  2px   
              6  2px   
              7  2px   
              8  2px   
    5.2 B3u   1  2py          2.324918     0.008942
              2  2py          0.632430     0.141009
              3 -2py          0.079053     0.945364
              4 -2py   
              5  2py   
              6  2py   
              7 -2py   
              8 -2py   
    6.2 B3u   1  2pz          2.324918     0.008942
              2 -2pz          0.632430     0.141009
              3  2pz          0.079053     0.945364
              4 -2pz   
              5 -2pz   
              6  2pz   
              7 -2pz   
              8  2pz   
    7.2 B3u   1  2px          0.035962     1.000000
              2  2px   
              3  2px   
              4  2px   
              5  2px   
              6  2px   
              7  2px   
              8  2px   
    8.2 B3u   1  2py          0.035962     1.000000
              2  2py   
              3 -2py   
              4 -2py   
              5  2py   
              6  2py   
              7 -2py   
              8 -2py   
    9.2 B3u   1  2pz          0.035962     1.000000
              2 -2pz   
              3  2pz   
              4 -2pz   
              5 -2pz   
              6  2pz   
              7 -2pz   
              8  2pz   
    1.3 B2u   1  1s         642.418910     0.002143
              2 -1s          96.798515     0.016209
              3 -1s          22.091121     0.077316
              4  1s           6.201070     0.245786
              5  1s           1.935118     0.470189
              6 -1s           0.636736     0.345471
              7 -1s    
              8  1s    
    2.3 B2u   1  1s           2.324918    -0.035092
              2 -1s           0.632430    -0.191233
              3 -1s           0.079053     1.083988
              4  1s    
              5  1s    
              6 -1s    
              7 -1s    
              8  1s    
    3.3 B2u   1  1s           0.035962     1.000000
              2 -1s    
              3 -1s    
              4  1s    
              5  1s    
              6 -1s    
              7 -1s    
              8  1s    
    4.3 B2u   1  2py          2.324918     0.008942
              2  2py          0.632430     0.141009
              3  2py          0.079053     0.945364
              4  2py   
              5  2py   
              6  2py   
              7  2py   
              8  2py   
    5.3 B2u   1  2px          2.324918     0.008942
              2  2px          0.632430     0.141009
              3 -2px          0.079053     0.945364
              4 -2px   
              5  2px   
              6  2px   
              7 -2px   
              8 -2px   
    6.3 B2u   1  2pz          2.324918     0.008942
              2 -2pz          0.632430     0.141009
              3 -2pz          0.079053     0.945364
              4  2pz   
              5 -2pz   
              6  2pz   
              7  2pz   
              8 -2pz   
    7.3 B2u   1  2py          0.035962     1.000000
              2  2py   
              3  2py   
              4  2py   
              5  2py   
              6  2py   
              7  2py   
              8  2py   
    8.3 B2u   1  2px          0.035962     1.000000
              2  2px   
              3 -2px   
              4 -2px   
              5  2px   
              6  2px   
              7 -2px   
              8 -2px   
    9.3 B2u   1  2pz          0.035962     1.000000
              2 -2pz   
              3 -2pz   
              4  2pz   
              5 -2pz   
              6  2pz   
              7  2pz   
              8 -2pz   
    1.4 B1g   1  1s         642.418910     0.002143
              2  1s          96.798515     0.016209
              3 -1s          22.091121     0.077316
              4 -1s           6.201070     0.245786
              5  1s           1.935118     0.470189
              6  1s           0.636736     0.345471
              7 -1s    
              8 -1s    
    2.4 B1g   1  1s           2.324918    -0.035092
              2  1s           0.632430    -0.191233
              3 -1s           0.079053     1.083988
              4 -1s    
              5  1s    
              6  1s    
              7 -1s    
              8 -1s    
    3.4 B1g   1  1s           0.035962     1.000000
              2  1s    
              3 -1s    
              4 -1s    
              5  1s    
              6  1s    
              7 -1s    
              8 -1s    
    4.4 B1g   1  2py          2.324918     0.008942
              2 -2py          0.632430     0.141009
              3  2py          0.079053     0.945364
              4 -2py   
              5  2py   
              6 -2py   
              7  2py   
              8 -2py   
    5.4 B1g   1  2px          2.324918     0.008942
              2 -2px          0.632430     0.141009
              3 -2px          0.079053     0.945364
              4  2px   
              5  2px   
              6 -2px   
              7 -2px   
              8  2px   
    6.4 B1g   1  2pz          2.324918     0.008942
              2  2pz          0.632430     0.141009
              3 -2pz          0.079053     0.945364
              4 -2pz   
              5 -2pz   
              6 -2pz   
              7  2pz   
              8  2pz   
    7.4 B1g   1  2py          0.035962     1.000000
              2 -2py   
              3  2py   
              4 -2py   
              5  2py   
              6 -2py   
              7  2py   
              8 -2py   
    8.4 B1g   1  2px          0.035962     1.000000
              2 -2px   
              3 -2px   
              4  2px   
              5  2px   
              6 -2px   
              7 -2px   
              8  2px   
    9.4 B1g   1  2pz          0.035962     1.000000
              2  2pz   
              3 -2pz   
              4 -2pz   
              5 -2pz   
              6 -2pz   
              7  2pz   
              8  2pz   
    1.5 B1u   1  1s         642.418910     0.002143
              2  1s          96.798515     0.016209
              3  1s          22.091121     0.077316
              4  1s           6.201070     0.245786
              5 -1s           1.935118     0.470189
              6 -1s           0.636736     0.345471
              7 -1s    
              8 -1s    
    2.5 B1u   1  1s           2.324918    -0.035092
              2  1s           0.632430    -0.191233
              3  1s           0.079053     1.083988
              4  1s    
              5 -1s    
              6 -1s    
              7 -1s    
              8 -1s    
    3.5 B1u   1  1s           0.035962     1.000000
              2  1s    
              3  1s    
              4  1s    
              5 -1s    
              6 -1s    
              7 -1s    
              8 -1s    
    4.5 B1u   1  2pz          2.324918     0.008942
              2  2pz          0.632430     0.141009
              3  2pz          0.079053     0.945364
              4  2pz   
              5  2pz   
              6  2pz   
              7  2pz   
              8  2pz   
    5.5 B1u   1  2px          2.324918     0.008942
              2 -2px          0.632430     0.141009
              3  2px          0.079053     0.945364
              4 -2px   
              5 -2px   
              6  2px   
              7 -2px   
              8  2px   
    6.5 B1u   1  2py          2.324918     0.008942
              2 -2py          0.632430     0.141009
              3 -2py          0.079053     0.945364
              4  2py   
              5 -2py   
              6  2py   
              7  2py   
              8 -2py   
    7.5 B1u   1  2pz          0.035962     1.000000
              2  2pz   
              3  2pz   
              4  2pz   
              5  2pz   
              6  2pz   
              7  2pz   
              8  2pz   
    8.5 B1u   1  2px          0.035962     1.000000
              2 -2px   
              3  2px   
              4 -2px   
              5 -2px   
              6  2px   
              7 -2px   
              8  2px   
    9.5 B1u   1  2py          0.035962     1.000000
              2 -2py   
              3 -2py   
              4  2py   
              5 -2py   
              6  2py   
              7  2py   
              8 -2py   
    1.6 B2g   1  1s         642.418910     0.002143
              2 -1s          96.798515     0.016209
              3  1s          22.091121     0.077316
              4 -1s           6.201070     0.245786
              5 -1s           1.935118     0.470189
              6  1s           0.636736     0.345471
              7 -1s    
              8  1s    
    2.6 B2g   1  1s           2.324918    -0.035092
              2 -1s           0.632430    -0.191233
              3  1s           0.079053     1.083988
              4 -1s    
              5 -1s    
              6  1s    
              7 -1s    
              8  1s    
    3.6 B2g   1  1s           0.035962     1.000000
              2 -1s    
              3  1s    
              4 -1s    
              5 -1s    
              6  1s    
              7 -1s    
              8  1s    
    4.6 B2g   1  2pz          2.324918     0.008942
              2 -2pz          0.632430     0.141009
              3  2pz          0.079053     0.945364
              4 -2pz   
              5  2pz   
              6 -2pz   
              7  2pz   
              8 -2pz   
    5.6 B2g   1  2px          2.324918     0.008942
              2  2px          0.632430     0.141009
              3  2px          0.079053     0.945364
              4  2px   
              5 -2px   
              6 -2px   
              7 -2px   
              8 -2px   
    6.6 B2g   1  2py          2.324918     0.008942
              2  2py          0.632430     0.141009
              3 -2py          0.079053     0.945364
              4 -2py   
              5 -2py   
              6 -2py   
              7  2py   
              8  2py   
    7.6 B2g   1  2pz          0.035962     1.000000
              2 -2pz   
              3  2pz   
              4 -2pz   
              5  2pz   
              6 -2pz   
              7  2pz   
              8 -2pz   
    8.6 B2g   1  2px          0.035962     1.000000
              2  2px   
              3  2px   
              4  2px   
              5 -2px   
              6 -2px   
              7 -2px   
              8 -2px   
    9.6 B2g   1  2py          0.035962     1.000000
              2  2py   
              3 -2py   
              4 -2py   
              5 -2py   
              6 -2py   
              7  2py   
              8  2py   
    1.7 B3g   1  1s         642.418910     0.002143
              2 -1s          96.798515     0.016209
              3 -1s          22.091121     0.077316
              4  1s           6.201070     0.245786
              5 -1s           1.935118     0.470189
              6  1s           0.636736     0.345471
              7  1s    
              8 -1s    
    2.7 B3g   1  1s           2.324918    -0.035092
              2 -1s           0.632430    -0.191233
              3 -1s           0.079053     1.083988
              4  1s    
              5 -1s    
              6  1s    
              7  1s    
              8 -1s    
    3.7 B3g   1  1s           0.035962     1.000000
              2 -1s    
              3 -1s    
              4  1s    
              5 -1s    
              6  1s    
              7  1s    
              8 -1s    
    4.7 B3g   1  2pz          2.324918     0.008942
              2 -2pz          0.632430     0.141009
              3 -2pz          0.079053     0.945364
              4  2pz   
              5  2pz   
              6 -2pz   
              7 -2pz   
              8  2pz   
    5.7 B3g   1  2py          2.324918     0.008942
              2  2py          0.632430     0.141009
              3  2py          0.079053     0.945364
              4  2py   
              5 -2py   
              6 -2py   
              7 -2py   
              8 -2py   
    6.7 B3g   1  2px          2.324918     0.008942
              2  2px          0.632430     0.141009
              3 -2px          0.079053     0.945364
              4 -2px   
              5 -2px   
              6 -2px   
              7  2px   
              8  2px   
    7.7 B3g   1  2pz          0.035962     1.000000
              2 -2pz   
              3 -2pz   
              4  2pz   
              5  2pz   
              6 -2pz   
              7 -2pz   
              8  2pz   
    8.7 B3g   1  2py          0.035962     1.000000
              2  2py   
              3  2py   
              4  2py   
              5 -2py   
              6 -2py   
              7 -2py   
              8 -2py   
    9.7 B3g   1  2px          0.035962     1.000000
              2  2px   
              3 -2px   
              4 -2px   
              5 -2px   
              6 -2px   
              7  2px   
              8  2px   
    1.8 Au    1  1s         642.418910     0.002143
              2  1s          96.798515     0.016209
              3 -1s          22.091121     0.077316
              4 -1s           6.201070     0.245786
              5 -1s           1.935118     0.470189
              6 -1s           0.636736     0.345471
              7  1s    
              8  1s    
    2.8 Au    1  1s           2.324918    -0.035092
              2  1s           0.632430    -0.191233
              3 -1s           0.079053     1.083988
              4 -1s    
              5 -1s    
              6 -1s    
              7  1s    
              8  1s    
    3.8 Au    1  1s           0.035962     1.000000
              2  1s    
              3 -1s    
              4 -1s    
              5 -1s    
              6 -1s    
              7  1s    
              8  1s    
    4.8 Au    1  2pz          2.324918     0.008942
              2  2pz          0.632430     0.141009
              3 -2pz          0.079053     0.945364
              4 -2pz   
              5  2pz   
              6  2pz   
              7 -2pz   
              8 -2pz   
    5.8 Au    1  2py          2.324918     0.008942
              2 -2py          0.632430     0.141009
              3  2py          0.079053     0.945364
              4 -2py   
              5 -2py   
              6  2py   
              7 -2py   
              8  2py   
    6.8 Au    1  2px          2.324918     0.008942
              2 -2px          0.632430     0.141009
              3 -2px          0.079053     0.945364
              4  2px   
              5 -2px   
              6  2px   
              7  2px   
              8 -2px   
    7.8 Au    1  2pz          0.035962     1.000000
              2  2pz   
              3 -2pz   
              4 -2pz   
              5  2pz   
              6  2pz   
              7 -2pz   
              8 -2pz   
    8.8 Au    1  2py          0.035962     1.000000
              2 -2py   
              3  2py   
              4 -2py   
              5 -2py   
              6  2py   
              7 -2py   
              8  2py   
    9.8 Au    1  2px          0.035962     1.000000
              2 -2px   
              3 -2px   
              4  2px   
              5 -2px   
              6  2px   
              7  2px   
              8 -2px   

 NUCLEAR CHARGE:                   24
 NUMBER OF PRIMITIVE AOS:         176
 NUMBER OF SYMMETRY AOS:          176
 NUMBER OF CONTRACTIONS:           72   (    9Ag  +    9B3u +    9B2u +    9B1g +    9B1u +    9B2g +    9B3g +    9Au  )
 NUMBER OF CORE ORBITALS:           8   (    1Ag  +    1B3u +    1B2u +    1B1g +    1B1u +    1B2g +    1B3g +    1Au  )
 NUMBER OF VALENCE ORBITALS:       32   (    4Ag  +    4B3u +    4B2u +    4B1g +    4B1u +    4B2g +    4B3g +    4Au  )


 NUCLEAR REPULSION ENERGY   36.18727945

 Eigenvalues of metric

         1 0.236E-01 0.207E+00 0.293E+00 0.293E+00 0.956E+00 0.241E+01 0.382E+01 0.382E+01
         2 0.451E-02 0.101E+00 0.150E+00 0.186E+00 0.354E+00 0.968E+00 0.153E+01 0.162E+01
         3 0.451E-02 0.101E+00 0.150E+00 0.186E+00 0.354E+00 0.968E+00 0.153E+01 0.162E+01
         4 0.775E-03 0.268E-01 0.539E-01 0.110E+00 0.172E+00 0.338E+00 0.796E+00 0.964E+00
         5 0.451E-02 0.101E+00 0.150E+00 0.186E+00 0.354E+00 0.968E+00 0.153E+01 0.162E+01
         6 0.775E-03 0.268E-01 0.539E-01 0.110E+00 0.172E+00 0.338E+00 0.796E+00 0.964E+00
         7 0.775E-03 0.268E-01 0.539E-01 0.110E+00 0.172E+00 0.338E+00 0.796E+00 0.964E+00
         8 0.161E-03 0.932E-02 0.932E-02 0.480E-01 0.104E+00 0.201E+00 0.201E+00 0.930E+00


 Contracted 2-electron integrals neglected if value below      1.0D-11
 AO integral compression algorithm  1   Integral accuracy      1.0D-11

     8.126 MB (compressed) written to integral file ( 57.9%)


 NUMBER OF SORTED TWO-ELECTRON INTEGRALS:     453942.     BUFFER LENGTH:  32768
 NUMBER OF SEGMENTS:   1  SEGMENT LENGTH:     453942      RECORD LENGTH: 524288

 Memory used in sort:       1.01 MW

 SORT1 READ     1783296. AND WROTE      453942. INTEGRALS IN      2 RECORDS. CPU TIME:     0.02 SEC, REAL TIME:     0.02 SEC
 SORT2 READ      453942. AND WROTE      453942. INTEGRALS IN     31 RECORDS. CPU TIME:     0.13 SEC, REAL TIME:     0.15 SEC

 FILE SIZES:   FILE 1:    38.3 MBYTE,  FILE 4:     8.4 MBYTE,   TOTAL:     46.8 MBYTE

 OPERATOR DM      FOR CENTER  0  COORDINATES:    0.000000    0.000000    0.000000


 **********************************************************************************************************************************
 DATASETS  * FILE   NREC   LENGTH (MB)   RECORD NAMES
              1      19       32.37       500      700      610      900      950      970     1000      129      960     1100   
                                          VAR     GEOM    BASINP   SYMINP    ZMAT    AOBASIS   BASIS     P2S    ABASIS      S 
                                         1400     1410     1200     1210     1080     1600     1650     1300     1700   
                                           T        V       H0       H01     AOSYM     SMH    MOLCAS    ERIS     OPER   

              3       5       14.92       500      610      700     1000     2100   
                                          VAR    BASINP    GEOM     BASIS     RHF  

 PROGRAMS   *        TOTAL       INT   RESTART
 CPU TIMES  *         0.76      0.67      0.01
 REAL TIME  *         1.89 SEC
 DISK USED  *        62.05 MB
 **********************************************************************************************************************************


 PROGRAM * CISD (Closed-shell CI(SD))     Authors: C. Hampel, H.-J. Werner, 1991, M. Deegan, P.J. Knowles, 1992


 Input parameters for THRESH:

 ENERGY   =    1.00D-10
 COEFF    =    1.00D-12
 PRINTCI  =    0.000000
 THRPRINT =    0.000000

 Convergence thresholds:  THRVAR = 1.00D-24  THRDEN = 1.00D-10

 Number of closed-shell orbitals:  12 (   2   2   2   1   2   1   1   1 )
 Number of external orbitals:      60 (   7   7   7   8   7   8   8   8 )

 Molecular orbitals read from record     2100.3  Type=RHF/CANONICAL (state 1.1)

 Number of N-1 electron functions:              12
 Number of N-2 electron functions:              78
 Number of singly external CSFs:                88
 Number of doubly external CSFs:             32764
 Total number of CSFs:                       32853

 Length of J-op  integral file:               0.00 MB
 Length of K-op  integral file:               0.08 MB

 Integral transformation finished. Total CPU:   0.01 sec, npass=  1  Memory used:   0.12 MW

 Reference energy:                    -59.51321462

 MP2 singlet pair energy:              -0.08139028
 MP2 triplet pair energy:              -0.04139687
 MP2 correlation energy:               -0.12278716
 MP2 total energy:                    -59.63600178

 SCS-MP2 correlation energy:           -0.12342639   (PS=  1.200000  PT=  0.333333)
 SCS-MP2 total energy:                -59.63664102

 ITER.      SQ.NORM     CORR.ENERGY   TOTAL ENERGY   ENERGY CHANGE        DEN1      VAR(S)    VAR(P)  DIIS     TIME  TIME/IT
   1      1.21308589    -0.12114116   -59.63435579     0.00164600     0.00658840  0.92D-03  0.83D-02  1  1     0.06     0.04
   2      1.22575537    -0.12143717   -59.63465179    -0.00029601    -0.00255645  0.31D-04  0.87D-03  2  2     0.09     0.04
   3      1.24121969    -0.12171884   -59.63493347    -0.00028167    -0.00244066  0.33D-05  0.13D-03  3  3     0.13     0.04
   4      1.24730299    -0.12201505   -59.63522968    -0.00029621    -0.00080766  0.41D-06  0.13D-04  4  4     0.16     0.04
   5      1.24848021    -0.12205246   -59.63526708    -0.00003741    -0.00004065  0.37D-07  0.19D-05  5  5     0.20     0.04
   6      1.24881291    -0.12205785   -59.63527247    -0.00000539    -0.00000504  0.18D-08  0.19D-06  6  6     0.24     0.04
   7      1.24889628    -0.12205854   -59.63527317    -0.00000070    -0.00000795  0.17D-08  0.30D-07  6  1     0.29     0.04
   8      1.24890293    -0.12205860   -59.63527323    -0.00000006    -0.00000144  0.18D-09  0.26D-08  6  2     0.33     0.04
   9      1.24890474    -0.12205861   -59.63527324    -0.00000001    -0.00000038  0.91D-11  0.29D-09  6  3     0.36     0.04
  10      1.24890373    -0.12205861   -59.63527324    -0.00000000     0.00000027  0.97D-12  0.42D-10  6  4     0.40     0.04
  11      1.24890315    -0.12205861   -59.63527324    -0.00000000     0.00000007  0.11D-12  0.47D-11  6  6     0.44     0.04
  12      1.24890313    -0.12205861   -59.63527324    -0.00000000     0.00000001  0.25D-13  0.60D-12  6  5     0.47     0.04
  13      1.24890303    -0.12205861   -59.63527324    -0.00000000     0.00000000  0.52D-14  0.79D-13  6  2     0.50     0.04
  14      1.24890298    -0.12205861   -59.63527324    -0.00000000     0.00000000  0.33D-14  0.11D-13  6  1     0.53     0.04
  15      1.24890294    -0.12205861   -59.63527324    -0.00000000     0.00000000  0.86D-15  0.22D-14  6  3     0.56     0.04
  16      1.24890293    -0.12205861   -59.63527324     0.00000000     0.00000000  0.98D-16  0.28D-15  6  6     0.59     0.04
  17      1.24890292    -0.12205861   -59.63527324     0.00000000     0.00000000  0.10D-16  0.39D-16  6  4     0.61     0.04
  18      1.24890292    -0.12205861   -59.63527324     0.00000000    -0.00000000  0.11D-17  0.93D-17  6  5     0.64     0.04
  19      1.24890292    -0.12205861   -59.63527324     0.00000000    -0.00000000  0.11D-18  0.17D-17  6  2     0.67     0.04
  20      1.24890292    -0.12205861   -59.63527324     0.00000000    -0.00000000  0.39D-20  0.29D-18  6  1     0.70     0.04
  21      1.24890292    -0.12205861   -59.63527324     0.00000000     0.00000000  0.11D-21  0.45D-19  6  3     0.73     0.04
  22      1.24890292    -0.12205861   -59.63527324     0.00000000    -0.00000000  0.12D-21  0.50D-20  6  4     0.76     0.04
  23      1.24890292    -0.12205861   -59.63527324     0.00000000    -0.00000000  0.81D-23  0.41D-21  6  6     0.79     0.04
  24      1.24890292    -0.12205861   -59.63527324     0.00000000    -0.00000000  0.39D-23  0.11D-21  6  5     0.82     0.04
  25      1.24890292    -0.12205861   -59.63527324     0.00000000    -0.00000000  0.70D-24  0.66D-23  6  2     0.85     0.04
  26      1.24890292    -0.12205861   -59.63527324     0.00000000    -0.00000000  0.18D-24  0.13D-23  6  1     0.88     0.04
  27      1.24890292    -0.12205861   -59.63527324     0.00000000    -0.00000000  0.38D-25  0.16D-24  6  4     0.91     0.04


 ! DIPOLE MOMENTS:                      0.00000000     0.00000000     0.00000000



 Norm of t1 vector:      0.03952819      S-energy:    -0.00015272      T1 diagnostic:  0.00570540

 Singles amplitudes (print threshold =  0.000E+00):

         I         SYM. A    A   T(IA)

         1         1         1      0.00000000
         1         1         2     -0.00000000
         1         1         3     -0.00002498
         1         1         4     -0.00000000
         1         1         5      0.00000000
         1         1         6      0.00031205
         1         1         7     -0.00007075
         2         1         1     -0.00000000
         2         1         2     -0.00000000
         2         1         3     -0.01301330
         2         1         4      0.00000000
         2         1         5     -0.00000000
         2         1         6     -0.00088601
         2         1         7      0.00316332
         3         2         1     -0.00017682
         3         2         2     -0.00000000
         3         2         3      0.00042188
         3         2         4      0.00014256
         3         2         5      0.00000000
         3         2         6     -0.00031401
         3         2         7      0.00016746
         4         2         1      0.00487308
         4         2         2      0.00000000
         4         2         3      0.00771130
         4         2         4      0.00939204
         4         2         5      0.00000000
         4         2         6      0.00428054
         4         2         7     -0.00297805
         5         3         1     -0.00017682
         5         3         2     -0.00000000
         5         3         3      0.00042188
         5         3         4      0.00014256
         5         3         5     -0.00000000
         5         3         6     -0.00031401
         5         3         7      0.00016746
         6         3         1      0.00487308
         6         3         2      0.00000000
         6         3         3      0.00771130
         6         3         4      0.00939204
         6         3         5      0.00000000
         6         3         6      0.00428054
         6         3         7     -0.00297805
         7         4         1      0.00056049
         7         4         2     -0.00031687
         7         4         3     -0.00000000
         7         4         4      0.00058622
         7         4         5      0.00003511
         7         4         6     -0.00000000
         7         4         7     -0.00047425
         7         4         8      0.00025492
         8         5         1     -0.00017682
         8         5         2     -0.00000000
         8         5         3      0.00042188
         8         5         4      0.00014256
         8         5         5     -0.00000000
         8         5         6     -0.00031401
         8         5         7      0.00016746
         9         5         1      0.00487308
         9         5         2      0.00000000
         9         5         3      0.00771130
         9         5         4      0.00939204
         9         5         5      0.00000000
         9         5         6      0.00428054
         9         5         7     -0.00297805
        10         6         1      0.00056049
        10         6         2     -0.00031687
        10         6         3     -0.00000000
        10         6         4      0.00058622
        10         6         5      0.00003511
        10         6         6      0.00000000
        10         6         7     -0.00047425
        10         6         8      0.00025492
        11         7         1      0.00056049
        11         7         2     -0.00031687
        11         7         3     -0.00000000
        11         7         4      0.00058622
        11         7         5      0.00003511
        11         7         6      0.00000000
        11         7         7     -0.00047425
        11         7         8      0.00025492
        12         8         1      0.00027642
        12         8         2      0.00000000
        12         8         3     -0.00000000
        12         8         4      0.00067104
        12         8         5      0.00000000
        12         8         6      0.00000000
        12         8         7      0.00058054
        12         8         8      0.00027900

 Doubles amplitudes (print threshold =  0.000E+00):

         I         J         SYM. A    SYM. B    A         B      T(IJ, AB)

         1         1         1         1         1         1      0.00000387
         1         1         1         1         1         2      0.00000000
         1         1         1         1         1         3      0.00000000
         1         1         1         1         1         4     -0.00005744
         1         1         1         1         1         5      0.00007308
         1         1         1         1         1         6     -0.00000000
         1         1         1         1         1         7      0.00000000
         1         1         1         1         2         1      0.00000000
         1         1         1         1         2         2      0.00000387
         1         1         1         1         2         3      0.00000000
         1         1         1         1         2         4     -0.00007308
         1         1         1         1         2         5     -0.00005744
         1         1         1         1         2         6     -0.00000000
         1         1         1         1         2         7     -0.00000000
         1         1         1         1         3         1      0.00000000
         1         1         1         1         3         2      0.00000000
         1         1         1         1         3         3      0.00000413
         1         1         1         1         3         4      0.00000000
         1         1         1         1         3         5     -0.00000000
         1         1         1         1         3         6     -0.00007443
         1         1         1         1         3         7      0.00005144
         1         1         1         1         4         1     -0.00005744
         1         1         1         1         4         2     -0.00007308
         1         1         1         1         4         3      0.00000000
         1         1         1         1         4         4     -0.00019472
         1         1         1         1         4         5      0.00000000
         1         1         1         1         4         6     -0.00000000
         1         1         1         1         4         7      0.00000000
         1         1         1         1         5         1      0.00007308
         1         1         1         1         5         2     -0.00005744
         1         1         1         1         5         3     -0.00000000
         1         1         1         1         5         4      0.00000000
         1         1         1         1         5         5     -0.00019472
         1         1         1         1         5         6      0.00000000
         1         1         1         1         5         7     -0.00000000
         1         1         1         1         6         1     -0.00000000
         1         1         1         1         6         2     -0.00000000
         1         1         1         1         6         3     -0.00007443
         1         1         1         1         6         4     -0.00000000
         1         1         1         1         6         5      0.00000000
         1         1         1         1         6         6     -0.00030692
         1         1         1         1         6         7      0.00022606
         1         1         1         1         7         1      0.00000000
         1         1         1         1         7         2     -0.00000000
         1         1         1         1         7         3      0.00005144
         1         1         1         1         7         4      0.00000000
         1         1         1         1         7         5     -0.00000000
         1         1         1         1         7         6      0.00022606
         1         1         1         1         7         7     -0.00026138
         1         1         2         2         1         1     -0.00003332
         1         1         2         2         1         2     -0.00000000
         1         1         2         2         1         3      0.00005912
         1         1         2         2         1         4     -0.00004076
         1         1         2         2         1         5      0.00000000
         1         1         2         2         1         6     -0.00000329
         1         1         2         2         1         7      0.00005305
         1         1         2         2         2         1     -0.00000000
         1         1         2         2         2         2     -0.00001513
         1         1         2         2         2         3     -0.00000000
         1         1         2         2         2         4     -0.00000000
         1         1         2         2         2         5     -0.00008570
         1         1         2         2         2         6     -0.00000000
         1         1         2         2         2         7     -0.00000000
         1         1         2         2         3         1      0.00005912
         1         1         2         2         3         2     -0.00000000
         1         1         2         2         3         3     -0.00013707
         1         1         2         2         3         4     -0.00007602
         1         1         2         2         3         5      0.00000000
         1         1         2         2         3         6      0.00009600
         1         1         2         2         3         7     -0.00018087
         1         1         2         2         4         1     -0.00004076
         1         1         2         2         4         2     -0.00000000
         1         1         2         2         4         3     -0.00007602
         1         1         2         2         4         4     -0.00029072
         1         1         2         2         4         5      0.00000000
         1         1         2         2         4         6      0.00003272
         1         1         2         2         4         7     -0.00011740
         1         1         2         2         5         1      0.00000000
         1         1         2         2         5         2     -0.00008570
         1         1         2         2         5         3      0.00000000
         1         1         2         2         5         4      0.00000000
         1         1         2         2         5         5     -0.00025986
         1         1         2         2         5         6     -0.00000000
         1         1         2         2         5         7      0.00000000
         1         1         2         2         6         1     -0.00000329
         1         1         2         2         6         2     -0.00000000
         1         1         2         2         6         3      0.00009600
         1         1         2         2         6         4      0.00003272
         1         1         2         2         6         5     -0.00000000
         1         1         2         2         6         6     -0.00045058
         1         1         2         2         6         7      0.00022001
         1         1         2         2         7         1      0.00005305
         1         1         2         2         7         2     -0.00000000
         1         1         2         2         7         3     -0.00018087
         1         1         2         2         7         4     -0.00011740
         1         1         2         2         7         5      0.00000000
         1         1         2         2         7         6      0.00022001
         1         1         2         2         7         7     -0.00036369
         1         1         3         3         1         1     -0.00003332
         1         1         3         3         1         2     -0.00000000
         1         1         3         3         1         3      0.00005912
         1         1         3         3         1         4     -0.00004076
         1         1         3         3         1         5     -0.00000000
         1         1         3         3         1         6     -0.00000329
         1         1         3         3         1         7      0.00005305
         1         1         3         3         2         1     -0.00000000
         1         1         3         3         2         2     -0.00001513
         1         1         3         3         2         3     -0.00000000
         1         1         3         3         2         4     -0.00000000
         1         1         3         3         2         5     -0.00008570
         1         1         3         3         2         6     -0.00000000
         1         1         3         3         2         7     -0.00000000
         1         1         3         3         3         1      0.00005912
         1         1         3         3         3         2     -0.00000000
         1         1         3         3         3         3     -0.00013707
         1         1         3         3         3         4     -0.00007602
         1         1         3         3         3         5      0.00000000
         1         1         3         3         3         6      0.00009600
         1         1         3         3         3         7     -0.00018087
         1         1         3         3         4         1     -0.00004076
         1         1         3         3         4         2     -0.00000000
         1         1         3         3         4         3     -0.00007602
         1         1         3         3         4         4     -0.00029072
         1         1         3         3         4         5      0.00000000
         1         1         3         3         4         6      0.00003272
         1         1         3         3         4         7     -0.00011740
         1         1         3         3         5         1     -0.00000000
         1         1         3         3         5         2     -0.00008570
         1         1         3         3         5         3      0.00000000
         1         1         3         3         5         4      0.00000000
         1         1         3         3         5         5     -0.00025986
         1         1         3         3         5         6     -0.00000000
         1         1         3         3         5         7      0.00000000
         1         1         3         3         6         1     -0.00000329
         1         1         3         3         6         2     -0.00000000
         1         1         3         3         6         3      0.00009600
         1         1         3         3         6         4      0.00003272
         1         1         3         3         6         5     -0.00000000
         1         1         3         3         6         6     -0.00045058
         1         1         3         3         6         7      0.00022001
         1         1         3         3         7         1      0.00005305
         1         1         3         3         7         2     -0.00000000
         1         1         3         3         7         3     -0.00018087
         1         1         3         3         7         4     -0.00011740
         1         1         3         3         7         5      0.00000000
         1         1         3         3         7         6      0.00022001
         1         1         3         3         7         7     -0.00036369
         1         1         4         4         1         1     -0.00013234
         1         1         4         4         1         2      0.00010652
         1         1         4         4         1         3      0.00000000
         1         1         4         4         1         4     -0.00022238
         1         1         4         4         1         5     -0.00001359
         1         1         4         4         1         6      0.00000000
         1         1         4         4         1         7      0.00009187
         1         1         4         4         1         8     -0.00022030
         1         1         4         4         2         1      0.00010652
         1         1         4         4         2         2     -0.00008361
         1         1         4         4         2         3     -0.00000000
         1         1         4         4         2         4      0.00015247
         1         1         4         4         2         5     -0.00005024
         1         1         4         4         2         6      0.00000000
         1         1         4         4         2         7     -0.00005245
         1         1         4         4         2         8      0.00015001
         1         1         4         4         3         1      0.00000000
         1         1         4         4         3         2     -0.00000000
         1         1         4         4         3         3      0.00000558
         1         1         4         4         3         4     -0.00000000
         1         1         4         4         3         5      0.00000000
         1         1         4         4         3         6     -0.00003063
         1         1         4         4         3         7     -0.00000000
         1         1         4         4         3         8      0.00000000
         1         1         4         4         4         1     -0.00022238
         1         1         4         4         4         2      0.00015247
         1         1         4         4         4         3     -0.00000000
         1         1         4         4         4         4     -0.00031241
         1         1         4         4         4         5     -0.00005398
         1         1         4         4         4         6      0.00000000
         1         1         4         4         4         7      0.00014761
         1         1         4         4         4         8     -0.00032799
         1         1         4         4         5         1     -0.00001359
         1         1         4         4         5         2     -0.00005024
         1         1         4         4         5         3      0.00000000
         1         1         4         4         5         4     -0.00005398
         1         1         4         4         5         5     -0.00034007
         1         1         4         4         5         6     -0.00000000
         1         1         4         4         5         7      0.00002270
         1         1         4         4         5         8     -0.00005420
         1         1         4         4         6         1      0.00000000
         1         1         4         4         6         2      0.00000000
         1         1         4         4         6         3     -0.00003063
         1         1         4         4         6         4      0.00000000
         1         1         4         4         6         5     -0.00000000
         1         1         4         4         6         6     -0.00045341
         1         1         4         4         6         7      0.00000000
         1         1         4         4         6         8     -0.00000000
         1         1         4         4         7         1      0.00009187
         1         1         4         4         7         2     -0.00005245
         1         1         4         4         7         3     -0.00000000
         1         1         4         4         7         4      0.00014761
         1         1         4         4         7         5      0.00002270
         1         1         4         4         7         6      0.00000000
         1         1         4         4         7         7     -0.00066775
         1         1         4         4         7         8      0.00043398
         1         1         4         4         8         1     -0.00022030
         1         1         4         4         8         2      0.00015001
         1         1         4         4         8         3      0.00000000
         1         1         4         4         8         4     -0.00032799
         1         1         4         4         8         5     -0.00005420
         1         1         4         4         8         6     -0.00000000
         1         1         4         4         8         7      0.00043398
         1         1         4         4         8         8     -0.00064421
         1         1         5         5         1         1     -0.00003332
         1         1         5         5         1         2     -0.00000000
         1         1         5         5         1         3      0.00005912
         1         1         5         5         1         4     -0.00004076
         1         1         5         5         1         5      0.00000000
         1         1         5         5         1         6     -0.00000329
         1         1         5         5         1         7      0.00005305
         1         1         5         5         2         1     -0.00000000
         1         1         5         5         2         2     -0.00001513
         1         1         5         5         2         3     -0.00000000
         1         1         5         5         2         4     -0.00000000
         1         1         5         5         2         5     -0.00008570
         1         1         5         5         2         6     -0.00000000
         1         1         5         5         2         7     -0.00000000
         1         1         5         5         3         1      0.00005912
         1         1         5         5         3         2     -0.00000000
         1         1         5         5         3         3     -0.00013707
         1         1         5         5         3         4     -0.00007602
         1         1         5         5         3         5      0.00000000
         1         1         5         5         3         6      0.00009600
         1         1         5         5         3         7     -0.00018087
         1         1         5         5         4         1     -0.00004076
         1         1         5         5         4         2     -0.00000000
         1         1         5         5         4         3     -0.00007602
         1         1         5         5         4         4     -0.00029072
         1         1         5         5         4         5     -0.00000000
         1         1         5         5         4         6      0.00003272
         1         1         5         5         4         7     -0.00011740
         1         1         5         5         5         1      0.00000000
         1         1         5         5         5         2     -0.00008570
         1         1         5         5         5         3      0.00000000
         1         1         5         5         5         4     -0.00000000
         1         1         5         5         5         5     -0.00025986
         1         1         5         5         5         6     -0.00000000
         1         1         5         5         5         7      0.00000000
         1         1         5         5         6         1     -0.00000329
         1         1         5         5         6         2     -0.00000000
         1         1         5         5         6         3      0.00009600
         1         1         5         5         6         4      0.00003272
         1         1         5         5         6         5     -0.00000000
         1         1         5         5         6         6     -0.00045058
         1         1         5         5         6         7      0.00022001
         1         1         5         5         7         1      0.00005305
         1         1         5         5         7         2     -0.00000000
         1         1         5         5         7         3     -0.00018087
         1         1         5         5         7         4     -0.00011740
         1         1         5         5         7         5      0.00000000
         1         1         5         5         7         6      0.00022001
         1         1         5         5         7         7     -0.00036369
         1         1         6         6         1         1     -0.00013234
         1         1         6         6         1         2      0.00010652
         1         1         6         6         1         3      0.00000000
         1         1         6         6         1         4     -0.00022238
         1         1         6         6         1         5     -0.00001359
         1         1         6         6         1         6     -0.00000000
         1         1         6         6         1         7      0.00009187
         1         1         6         6         1         8     -0.00022030
         1         1         6         6         2         1      0.00010652
         1         1         6         6         2         2     -0.00008361
         1         1         6         6         2         3     -0.00000000
         1         1         6         6         2         4      0.00015247
         1         1         6         6         2         5     -0.00005024
         1         1         6         6         2         6      0.00000000
         1         1         6         6         2         7     -0.00005245
         1         1         6         6         2         8      0.00015001
         1         1         6         6         3         1      0.00000000
         1         1         6         6         3         2     -0.00000000
         1         1         6         6         3         3      0.00000558
         1         1         6         6         3         4     -0.00000000
         1         1         6         6         3         5      0.00000000
         1         1         6         6         3         6     -0.00003063
         1         1         6         6         3         7      0.00000000
         1         1         6         6         3         8      0.00000000
         1         1         6         6         4         1     -0.00022238
         1         1         6         6         4         2      0.00015247
         1         1         6         6         4         3     -0.00000000
         1         1         6         6         4         4     -0.00031241
         1         1         6         6         4         5     -0.00005398
         1         1         6         6         4         6      0.00000000
         1         1         6         6         4         7      0.00014761
         1         1         6         6         4         8     -0.00032799
         1         1         6         6         5         1     -0.00001359
         1         1         6         6         5         2     -0.00005024
         1         1         6         6         5         3      0.00000000
         1         1         6         6         5         4     -0.00005398
         1         1         6         6         5         5     -0.00034007
         1         1         6         6         5         6     -0.00000000
         1         1         6         6         5         7      0.00002270
         1         1         6         6         5         8     -0.00005420
         1         1         6         6         6         1     -0.00000000
         1         1         6         6         6         2      0.00000000
         1         1         6         6         6         3     -0.00003063
         1         1         6         6         6         4      0.00000000
         1         1         6         6         6         5     -0.00000000
         1         1         6         6         6         6     -0.00045341
         1         1         6         6         6         7      0.00000000
         1         1         6         6         6         8      0.00000000
         1         1         6         6         7         1      0.00009187
         1         1         6         6         7         2     -0.00005245
         1         1         6         6         7         3      0.00000000
         1         1         6         6         7         4      0.00014761
         1         1         6         6         7         5      0.00002270
         1         1         6         6         7         6      0.00000000
         1         1         6         6         7         7     -0.00066775
         1         1         6         6         7         8      0.00043398
         1         1         6         6         8         1     -0.00022030
         1         1         6         6         8         2      0.00015001
         1         1         6         6         8         3      0.00000000
         1         1         6         6         8         4     -0.00032799
         1         1         6         6         8         5     -0.00005420
         1         1         6         6         8         6      0.00000000
         1         1         6         6         8         7      0.00043398
         1         1         6         6         8         8     -0.00064421
         1         1         7         7         1         1     -0.00013234
         1         1         7         7         1         2      0.00010652
         1         1         7         7         1         3      0.00000000
         1         1         7         7         1         4     -0.00022238
         1         1         7         7         1         5     -0.00001359
         1         1         7         7         1         6      0.00000000
         1         1         7         7         1         7      0.00009187
         1         1         7         7         1         8     -0.00022030
         1         1         7         7         2         1      0.00010652
         1         1         7         7         2         2     -0.00008361
         1         1         7         7         2         3     -0.00000000
         1         1         7         7         2         4      0.00015247
         1         1         7         7         2         5     -0.00005024
         1         1         7         7         2         6     -0.00000000
         1         1         7         7         2         7     -0.00005245
         1         1         7         7         2         8      0.00015001
         1         1         7         7         3         1      0.00000000
         1         1         7         7         3         2     -0.00000000
         1         1         7         7         3         3      0.00000558
         1         1         7         7         3         4     -0.00000000
         1         1         7         7         3         5      0.00000000
         1         1         7         7         3         6     -0.00003063
         1         1         7         7         3         7     -0.00000000
         1         1         7         7         3         8      0.00000000
         1         1         7         7         4         1     -0.00022238
         1         1         7         7         4         2      0.00015247
         1         1         7         7         4         3     -0.00000000
         1         1         7         7         4         4     -0.00031241
         1         1         7         7         4         5     -0.00005398
         1         1         7         7         4         6     -0.00000000
         1         1         7         7         4         7      0.00014761
         1         1         7         7         4         8     -0.00032799
         1         1         7         7         5         1     -0.00001359
         1         1         7         7         5         2     -0.00005024
         1         1         7         7         5         3      0.00000000
         1         1         7         7         5         4     -0.00005398
         1         1         7         7         5         5     -0.00034007
         1         1         7         7         5         6     -0.00000000
         1         1         7         7         5         7      0.00002270
         1         1         7         7         5         8     -0.00005420
         1         1         7         7         6         1      0.00000000
         1         1         7         7         6         2     -0.00000000
         1         1         7         7         6         3     -0.00003063
         1         1         7         7         6         4     -0.00000000
         1         1         7         7         6         5     -0.00000000
         1         1         7         7         6         6     -0.00045341
         1         1         7         7         6         7     -0.00000000
         1         1         7         7         6         8     -0.00000000
         1         1         7         7         7         1      0.00009187
         1         1         7         7         7         2     -0.00005245
         1         1         7         7         7         3     -0.00000000
         1         1         7         7         7         4      0.00014761
         1         1         7         7         7         5      0.00002270
         1         1         7         7         7         6     -0.00000000
         1         1         7         7         7         7     -0.00066775
         1         1         7         7         7         8      0.00043398
         1         1         7         7         8         1     -0.00022030
         1         1         7         7         8         2      0.00015001
         1         1         7         7         8         3      0.00000000
         1         1         7         7         8         4     -0.00032799
         1         1         7         7         8         5     -0.00005420
         1         1         7         7         8         6     -0.00000000
         1         1         7         7         8         7      0.00043398
         1         1         7         7         8         8     -0.00064421
         1         1         8         8         1         1     -0.00004845
         1         1         8         8         1         2      0.00000000
         1         1         8         8         1         3     -0.00000000
         1         1         8         8         1         4     -0.00016900
         1         1         8         8         1         5     -0.00000000
         1         1         8         8         1         6     -0.00000000
         1         1         8         8         1         7     -0.00004692
         1         1         8         8         1         8     -0.00012394
         1         1         8         8         2         1      0.00000000
         1         1         8         8         2         2      0.00000416
         1         1         8         8         2         3     -0.00000000
         1         1         8         8         2         4      0.00000000
         1         1         8         8         2         5      0.00002302
         1         1         8         8         2         6      0.00000561
         1         1         8         8         2         7      0.00000000
         1         1         8         8         2         8      0.00000000
         1         1         8         8         3         1     -0.00000000
         1         1         8         8         3         2     -0.00000000
         1         1         8         8         3         3      0.00000416
         1         1         8         8         3         4     -0.00000000
         1         1         8         8         3         5      0.00000561
         1         1         8         8         3         6     -0.00002302
         1         1         8         8         3         7     -0.00000000
         1         1         8         8         3         8     -0.00000000
         1         1         8         8         4         1     -0.00016900
         1         1         8         8         4         2      0.00000000
         1         1         8         8         4         3     -0.00000000
         1         1         8         8         4         4     -0.00052768
         1         1         8         8         4         5      0.00000000
         1         1         8         8         4         6      0.00000000
         1         1         8         8         4         7     -0.00020857
         1         1         8         8         4         8     -0.00045294
         1         1         8         8         5         1     -0.00000000
         1         1         8         8         5         2      0.00002302
         1         1         8         8         5         3      0.00000561
         1         1         8         8         5         4      0.00000000
         1         1         8         8         5         5     -0.00055744
         1         1         8         8         5         6     -0.00000000
         1         1         8         8         5         7      0.00000000
         1         1         8         8         5         8      0.00000000
         1         1         8         8         6         1     -0.00000000
         1         1         8         8         6         2      0.00000561
         1         1         8         8         6         3     -0.00002302
         1         1         8         8         6         4      0.00000000
         1         1         8         8         6         5     -0.00000000
         1         1         8         8         6         6     -0.00055744
         1         1         8         8         6         7      0.00000000
         1         1         8         8         6         8      0.00000000
         1         1         8         8         7         1     -0.00004692
         1         1         8         8         7         2      0.00000000
         1         1         8         8         7         3     -0.00000000
         1         1         8         8         7         4     -0.00020857
         1         1         8         8         7         5      0.00000000
         1         1         8         8         7         6      0.00000000
         1         1         8         8         7         7     -0.00100935
         1         1         8         8         7         8     -0.00063725
         1         1         8         8         8         1     -0.00012394
         1         1         8         8         8         2      0.00000000
         1         1         8         8         8         3     -0.00000000
         1         1         8         8         8         4     -0.00045294
         1         1         8         8         8         5      0.00000000
         1         1         8         8         8         6      0.00000000
         1         1         8         8         8         7     -0.00063725
         1         1         8         8         8         8     -0.00084725
         2         1         1         1         1         1     -0.00036393
         2         1         1         1         1         2     -0.00000000
         2         1         1         1         1         3     -0.00000000
         2         1         1         1         1         4     -0.00034426
         2         1         1         1         1         5      0.00043800
         2         1         1         1         1         6      0.00000000
         2         1         1         1         1         7     -0.00000000
         2         1         1         1         2         1     -0.00000000
         2         1         1         1         2         2     -0.00036393
         2         1         1         1         2         3     -0.00000000
         2         1         1         1         2         4     -0.00043800
         2         1         1         1         2         5     -0.00034426
         2         1         1         1         2         6      0.00000000
         2         1         1         1         2         7      0.00000000
         2         1         1         1         3         1     -0.00000000
         2         1         1         1         3         2     -0.00000000
         2         1         1         1         3         3     -0.00040209
         2         1         1         1         3         4     -0.00000000
         2         1         1         1         3         5      0.00000000
         2         1         1         1         3         6     -0.00064987
         2         1         1         1         3         7      0.00026297
         2         1         1         1         4         1     -0.00018298
         2         1         1         1         4         2     -0.00023281
         2         1         1         1         4         3     -0.00000000
         2         1         1         1         4         4     -0.00045961
         2         1         1         1         4         5     -0.00000000
         2         1         1         1         4         6      0.00000000
         2         1         1         1         4         7     -0.00000000
         2         1         1         1         5         1      0.00023281
         2         1         1         1         5         2     -0.00018298
         2         1         1         1         5         3      0.00000000
         2         1         1         1         5         4     -0.00000000
         2         1         1         1         5         5     -0.00045961
         2         1         1         1         5         6     -0.00000000
         2         1         1         1         5         7      0.00000000
         2         1         1         1         6         1      0.00000000
         2         1         1         1         6         2      0.00000000
         2         1         1         1         6         3     -0.00021327
         2         1         1         1         6         4      0.00000000
         2         1         1         1         6         5     -0.00000000
         2         1         1         1         6         6     -0.00033747
         2         1         1         1         6         7      0.00014043
         2         1         1         1         7         1     -0.00000000
         2         1         1         1         7         2      0.00000000
         2         1         1         1         7         3      0.00000263
         2         1         1         1         7         4     -0.00000000
         2         1         1         1         7         5      0.00000000
         2         1         1         1         7         6     -0.00000226
         2         1         1         1         7         7      0.00003297
         2         1         2         2         1         1     -0.00021327
         2         1         2         2         1         2      0.00000000
         2         1         2         2         1         3     -0.00003232
         2         1         2         2         1         4     -0.00046302
         2         1         2         2         1         5     -0.00000000
         2         1         2         2         1         6      0.00019429
         2         1         2         2         1         7     -0.00008524
         2         1         2         2         2         1      0.00000000
         2         1         2         2         2         2     -0.00019698
         2         1         2         2         2         3      0.00000000
         2         1         2         2         2         4      0.00000000
         2         1         2         2         2         5     -0.00041405
         2         1         2         2         2         6      0.00000000
         2         1         2         2         2         7      0.00000000
         2         1         2         2         3         1      0.00001012
         2         1         2         2         3         2      0.00000000
         2         1         2         2         3         3      0.00006267
         2         1         2         2         3         4      0.00013331
         2         1         2         2         3         5     -0.00000000
         2         1         2         2         3         6     -0.00000896
[...]
        12         2         5         4         1         3      0.00000000
        12         2         5         4         1         4     -0.00007886
        12         2         5         4         1         5     -0.00000617
        12         2         5         4         1         6     -0.00000000
        12         2         5         4         1         7     -0.00007388
        12         2         5         4         1         8     -0.00002210
        12         2         5         4         2         1     -0.00000000
        12         2         5         4         2         2      0.00000000
        12         2         5         4         2         3      0.00005252
        12         2         5         4         2         4     -0.00000000
        12         2         5         4         2         5      0.00000000
        12         2         5         4         2         6      0.00015674
        12         2         5         4         2         7      0.00000000
        12         2         5         4         2         8     -0.00000000
        12         2         5         4         3         1      0.00008352
        12         2         5         4         3         2     -0.00006109
        12         2         5         4         3         3      0.00000000
        12         2         5         4         3         4      0.00011175
        12         2         5         4         3         5     -0.00001940
        12         2         5         4         3         6      0.00000000
        12         2         5         4         3         7     -0.00012534
        12         2         5         4         3         8      0.00011002
        12         2         5         4         4         1     -0.00010443
        12         2         5         4         4         2     -0.00006211
        12         2         5         4         4         3     -0.00000000
        12         2         5         4         4         4     -0.00000585
        12         2         5         4         4         5     -0.00024973
        12         2         5         4         4         6     -0.00000000
        12         2         5         4         4         7     -0.00039247
        12         2         5         4         4         8      0.00010070
        12         2         5         4         5         1     -0.00000000
        12         2         5         4         5         2      0.00000000
        12         2         5         4         5         3      0.00012317
        12         2         5         4         5         4     -0.00000000
        12         2         5         4         5         5      0.00000000
        12         2         5         4         5         6      0.00039632
        12         2         5         4         5         7     -0.00000000
        12         2         5         4         5         8     -0.00000000
        12         2         5         4         6         1      0.00020242
        12         2         5         4         6         2     -0.00033643
        12         2         5         4         6         3     -0.00000000
        12         2         5         4         6         4      0.00005006
        12         2         5         4         6         5     -0.00048891
        12         2         5         4         6         6      0.00000000
        12         2         5         4         6         7      0.00012997
        12         2         5         4         6         8     -0.00012264
        12         2         5         4         7         1     -0.00003311
        12         2         5         4         7         2      0.00005375
        12         2         5         4         7         3      0.00000000
        12         2         5         4         7         4      0.00002380
        12         2         5         4         7         5      0.00010197
        12         2         5         4         7         6     -0.00000000
        12         2         5         4         7         7     -0.00007747
        12         2         5         4         7         8      0.00013612
        12         2         6         3         1         1     -0.00017792
        12         2         6         3         1         2     -0.00000000
        12         2         6         3         1         3      0.00010735
        12         2         6         3         1         4     -0.00010195
        12         2         6         3         1         5      0.00000000
        12         2         6         3         1         6     -0.00003798
        12         2         6         3         1         7      0.00006527
        12         2         6         3         2         1      0.00010883
        12         2         6         3         2         2     -0.00000000
        12         2         6         3         2         3     -0.00005002
        12         2         6         3         2         4      0.00001566
        12         2         6         3         2         5      0.00000000
        12         2         6         3         2         6     -0.00007439
        12         2         6         3         2         7     -0.00003987
        12         2         6         3         3         1      0.00000000
        12         2         6         3         3         2      0.00005891
        12         2         6         3         3         3      0.00000000
        12         2         6         3         3         4     -0.00000000
        12         2         6         3         3         5      0.00007169
        12         2         6         3         3         6      0.00000000
        12         2         6         3         3         7      0.00000000
        12         2         6         3         4         1     -0.00018548
        12         2         6         3         4         2      0.00000000
        12         2         6         3         4         3      0.00013336
        12         2         6         3         4         4     -0.00011949
        12         2         6         3         4         5     -0.00000000
        12         2         6         3         4         6     -0.00009052
        12         2         6         3         4         7      0.00009484
        12         2         6         3         5         1     -0.00008085
        12         2         6         3         5         2      0.00000000
        12         2         6         3         5         3      0.00007651
        12         2         6         3         5         4     -0.00027265
        12         2         6         3         5         5      0.00000000
        12         2         6         3         5         6     -0.00041262
        12         2         6         3         5         7      0.00003428
        12         2         6         3         6         1      0.00000000
        12         2         6         3         6         2      0.00047401
        12         2         6         3         6         3     -0.00000000
        12         2         6         3         6         4      0.00000000
        12         2         6         3         6         5      0.00063140
        12         2         6         3         6         6     -0.00000000
        12         2         6         3         6         7     -0.00000000
        12         2         6         3         7         1     -0.00050812
        12         2         6         3         7         2      0.00000000
        12         2         6         3         7         3     -0.00002057
        12         2         6         3         7         4     -0.00054702
        12         2         6         3         7         5     -0.00000000
        12         2         6         3         7         6      0.00013519
        12         2         6         3         7         7     -0.00012357
        12         2         6         3         8         1      0.00012711
        12         2         6         3         8         2     -0.00000000
        12         2         6         3         8         3      0.00004067
        12         2         6         3         8         4      0.00018138
        12         2         6         3         8         5     -0.00000000
        12         2         6         3         8         6     -0.00005023
        12         2         6         3         8         7      0.00014029
        12         2         7         2         1         1     -0.00017792
        12         2         7         2         1         2     -0.00000000
        12         2         7         2         1         3      0.00010735
        12         2         7         2         1         4     -0.00010195
        12         2         7         2         1         5      0.00000000
        12         2         7         2         1         6     -0.00003798
        12         2         7         2         1         7      0.00006527
        12         2         7         2         2         1      0.00010883
        12         2         7         2         2         2     -0.00000000
        12         2         7         2         2         3     -0.00005002
        12         2         7         2         2         4      0.00001566
        12         2         7         2         2         5      0.00000000
        12         2         7         2         2         6     -0.00007439
        12         2         7         2         2         7     -0.00003987
        12         2         7         2         3         1      0.00000000
        12         2         7         2         3         2      0.00005891
        12         2         7         2         3         3      0.00000000
        12         2         7         2         3         4     -0.00000000
        12         2         7         2         3         5      0.00007169
        12         2         7         2         3         6      0.00000000
        12         2         7         2         3         7      0.00000000
        12         2         7         2         4         1     -0.00018548
        12         2         7         2         4         2     -0.00000000
        12         2         7         2         4         3      0.00013336
        12         2         7         2         4         4     -0.00011949
        12         2         7         2         4         5     -0.00000000
        12         2         7         2         4         6     -0.00009052
        12         2         7         2         4         7      0.00009484
        12         2         7         2         5         1     -0.00008085
        12         2         7         2         5         2      0.00000000
        12         2         7         2         5         3      0.00007651
        12         2         7         2         5         4     -0.00027265
        12         2         7         2         5         5      0.00000000
        12         2         7         2         5         6     -0.00041262
        12         2         7         2         5         7      0.00003428
        12         2         7         2         6         1      0.00000000
        12         2         7         2         6         2      0.00047401
        12         2         7         2         6         3     -0.00000000
        12         2         7         2         6         4      0.00000000
        12         2         7         2         6         5      0.00063140
        12         2         7         2         6         6     -0.00000000
        12         2         7         2         6         7     -0.00000000
        12         2         7         2         7         1     -0.00050812
        12         2         7         2         7         2      0.00000000
        12         2         7         2         7         3     -0.00002057
        12         2         7         2         7         4     -0.00054702
        12         2         7         2         7         5     -0.00000000
        12         2         7         2         7         6      0.00013519
        12         2         7         2         7         7     -0.00012357
        12         2         7         2         8         1      0.00012711
        12         2         7         2         8         2     -0.00000000
        12         2         7         2         8         3      0.00004067
        12         2         7         2         8         4      0.00018138
        12         2         7         2         8         5     -0.00000000
        12         2         7         2         8         6     -0.00005023
        12         2         7         2         8         7      0.00014029
        12         2         8         1         1         1      0.00000000
        12         2         8         1         1         2      0.00000000
        12         2         8         1         1         3     -0.00018400
        12         2         8         1         1         4     -0.00000000
        12         2         8         1         1         5     -0.00000000
        12         2         8         1         1         6     -0.00007140
        12         2         8         1         1         7     -0.00000768
        12         2         8         1         2         1     -0.00005627
        12         2         8         1         2         2     -0.00004943
        12         2         8         1         2         3      0.00000000
        12         2         8         1         2         4     -0.00005205
        12         2         8         1         2         5      0.00000968
        12         2         8         1         2         6      0.00000000
        12         2         8         1         2         7     -0.00000000
        12         2         8         1         3         1      0.00004943
        12         2         8         1         3         2     -0.00005627
        12         2         8         1         3         3     -0.00000000
        12         2         8         1         3         4     -0.00000968
        12         2         8         1         3         5     -0.00005205
        12         2         8         1         3         6     -0.00000000
        12         2         8         1         3         7      0.00000000
        12         2         8         1         4         1     -0.00000000
        12         2         8         1         4         2     -0.00000000
        12         2         8         1         4         3     -0.00039877
        12         2         8         1         4         4     -0.00000000
        12         2         8         1         4         5      0.00000000
        12         2         8         1         4         6     -0.00014938
        12         2         8         1         4         7     -0.00004729
        12         2         8         1         5         1      0.00046608
        12         2         8         1         5         2      0.00066543
        12         2         8         1         5         3      0.00000000
        12         2         8         1         5         4      0.00066330
        12         2         8         1         5         5      0.00003660
        12         2         8         1         5         6     -0.00000000
        12         2         8         1         5         7      0.00000000
        12         2         8         1         6         1      0.00066543
        12         2         8         1         6         2     -0.00046608
        12         2         8         1         6         3      0.00000000
        12         2         8         1         6         4      0.00003660
        12         2         8         1         6         5     -0.00066330
        12         2         8         1         6         6     -0.00000000
        12         2         8         1         6         7      0.00000000
        12         2         8         1         7         1     -0.00000000
        12         2         8         1         7         2     -0.00000000
        12         2         8         1         7         3      0.00089361
        12         2         8         1         7         4     -0.00000000
        12         2         8         1         7         5      0.00000000
        12         2         8         1         7         6      0.00060767
        12         2         8         1         7         7     -0.00011112
        12         2         8         1         8         1     -0.00000000
        12         2         8         1         8         2     -0.00000000
        12         2         8         1         8         3      0.00022393
        12         2         8         1         8         4     -0.00000000
        12         2         8         1         8         5      0.00000000
        12         2         8         1         8         6      0.00019159
        12         2         8         1         8         7     -0.00012314


 RESULTS
 =======

  Reference energy                    -59.513214624826

  Correlated core orbitals:             1.1       1.2       1.3       1.4       1.5       1.6       1.7       1.8
  Orbital energies:                    -2.4461   -2.4460   -2.4460   -2.4459   -2.4460   -2.4459   -2.4459   -2.4458

  CISD core-core energy                -0.003625677546
  CISD core-valence energy             -0.002309164110
  CISD valence correlation energy      -0.116123769659

  CISD singlet pair energy             -0.091068336716
  CISD triplet pair energy             -0.030837556191
  CISD correlation energy              -0.122058611315

 !CISD total energy                   -59.635273236141

 Timing summary (sec):

 STEP                 CPU(USER)    SYS     CPU(TOT)    WALL
 Transformation          0.01      0.01      0.02      1.26
 CCSD iterations         1.02      0.10      1.12      1.12

 Program statistics:

 Available memory in ccsd:                39998624
 Min. memory needed in ccsd:                100409
 Max. memory used in ccsd:                  130193
 Max. memory used in cckext:                139877 (27 integral passes)



 **********************************************************************************************************************************
 DATASETS  * FILE   NREC   LENGTH (MB)   RECORD NAMES
              1      20       32.99       500      700      610      900      950      970     1000      129      960     1100   
                                          VAR     GEOM    BASINP   SYMINP    ZMAT    AOBASIS   BASIS     P2S    ABASIS      S 
                                         1400     1410     1200     1210     1080     1600     1650     1300     1700     1380   
                                           T        V       H0       H01     AOSYM     SMH    MOLCAS    ERIS     OPER     JKOP   

              3       5       14.92       500      610      700     1000     2100   
                                          VAR    BASINP    GEOM     BASIS     RHF  

 PROGRAMS   *        TOTAL      CISD       INT   RESTART
 CPU TIMES  *         1.86      1.10      0.67      0.01
 REAL TIME  *         4.37 SEC
 DISK USED  *        62.05 MB
 **********************************************************************************************************************************
 Molecular orbitals read from record     2100.3  Type=RHF/CANONICAL (state 1.1)
 Occupation numbers read from record     2100.3  Type=RHF/RHF (state 1.1)
 Orbital energies read from record       2100.3  Type=RHF/CANONICAL (state 1.1)
 Redundancy group numbers read from rec  2100.3  Type=RHF/RHF (state 1.1)

 CISD/6-31G energy=    -59.635273236141

            CISD
    -59.63527324
 **********************************************************************************************************************************
 Molpro calculation terminated
