
 Primary working directories    : /scr/yuriaoto/job.023114/molpro.NP9dqSOwxt
 Secondary working directories  : /scr/yuriaoto/job.023114/molpro.NP9dqSOwxt
 Wavefunction directory         : /scr/yuriaoto/job.023114/
 Main file repository           : /scr/yuriaoto/job.023114/molpro.NP9dqSOwxt/

 id        : yuriaoto

 Nodes             nprocs
 t-rex.ufabc.int.br    1

 Using customized tuning parameters: mindgm=8; mindgv=16; mindgc=1; mindgr=1; noblas=0; minvec=7
 default implementation of scratch files=df  


 Variables initialized (933), CPU time= 0.00 sec
 ***,
 memory,40,m
 gprint,orbital,basis,civector
 gthresh,thrprint=0,printci=0.0
 file,3,wfu.dat,old
 
 {cisd,CC_NORM_MAX=10.0
 thresh,printci=0.0,ENERGY=1.0E-10,COEFF=1.0E-12
 print,ref=1
 core,0
 wf,6,1,0;
 }
 
 Commands  initialized (760), CPU time= 0.01 sec, 617 directives.
 Default parameters read. Elapsed time= 0.04 sec

 Checking input...
 Passed
1


                                         ***  PROGRAM SYSTEM MOLPRO  ***
                                       Copyright, TTI GmbH Stuttgart, 2015
                                    Version 2019.2 linked Abr  7 2019 15:10:35


 **********************************************************************************************************************************
 LABEL *                                                                                 
  64 bit serial version                                                                  DATE: 27-Apr-20          TIME: 18:28:07  
 **********************************************************************************************************************************

 SHA1:             3a8a58c585c929645742fb5a1b7541a4ad1da699
 **********************************************************************************************************************************


 THRESHOLDS:

 ZERO    =  1.00D-12  ONEINT  =  1.00D-12  TWOINT  =  1.00D-11  PREFAC  =  1.00D-14  XXXXXX  =  1.00D-09  EORDER  =  1.00D-04
 ENERGY  =  0.00D+00  ETEST   =  0.00D+00  EDENS   =  0.00D+00  THRDEDEF=  1.00D-06  GRADIENT=  1.00D-02  STEP    =  1.00D-03
 ORBITAL =  1.00D-05  CIVEC   =  1.00D-05  COEFF   =  1.00D-04  PRINTCI =  0.00D+00  PUNCHCI =  9.90D+01  OPTGRAD =  3.00D-04
 OPTENERG=  1.00D-06  OPTSTEP =  3.00D-04  THRGRAD =  1.00D-10  COMPRESS=  1.00D-11  VARMIN  =  1.00D-07  VARMAX  =  1.00D-03
 THRDOUB =  0.00D+00  THRDIV  =  1.00D-05  THRRED  =  1.00D-07  THRPSP  =  1.00D+00  THRDC   =  1.00D-10  THRCS   =  1.00D-10
 THRNRM  =  1.00D-08  THREQ   =  0.00D+00  THRDE   =  1.00D+00  THRREF  =  1.00D-05  SPARFAC =  1.00D+00  THRDLP  =  1.00D-07
 THRDIA  =  1.00D-10  THRDLS  =  1.00D-07  THRGPS  =  0.00D+00  THRKEX  =  0.00D+00  THRDIS  =  2.00D-01  THRVAR  =  1.00D-10
 THRLOC  =  1.00D-06  THRGAP  =  1.00D-06  THRLOCT = -1.00D+00  THRGAPT = -1.00D+00  THRORB  =  1.00D-06  THRMLTP =  0.00D+00
 THRCPQCI=  1.00D-10  KEXTA   =  0.00D+00  THRCOARS=  0.00D+00  SYMTOL  =  1.00D-06  GRADTOL =  1.00D-06  THROVL  =  1.00D-08
 THRORTH =  1.00D-08  GRID    =  1.00D-06  GRIDMAX =  1.00D-03  DTMAX   =  0.00D+00  THROCCDE=  1.00D-01  THROCCDE=  1.00D-01
 THRPRINT=  0.00D+00


 Variable memory set to   40000000 words,  buffer space 



 Permanent file  3  wfu.dat  assigned.  Implementation=df    Size= 14.08 MB


 PROGRAM * RESTART 


 Reading variables from file 3

 _FNUC           =      0.00000000
 _BASIS          =    USERDEF
 _NELEC          =      6.00000000
 _PROGRAM        =    RHF-SCF
 _DMZ            =     -0.00000000
 _DMX_SCF        =      0.00000000
 _DMY_SCF        =      0.00000000
 _DMZ_SCF        =     -0.00000000
 _HOMO           =      3.10000000
 _EHOMO          =     -0.18597655
 _LUMO           =      4.10000000
 _ELUMO          =      0.01067434
 _ENERGY         =    -14.86011275
 _ENERGY_METHOD  =    RHF
 _ENERGY_BASIS   =    USERDEF
 _ENUC           =      1.80000000
 _EPS1(1:6)      =     -2.46726903    -2.46691860    -0.18597655     0.01067434     0.13061279     0.19993170
 _IPROC_MPP      =      0.00000000
 _IPROC_MPPX     =      0.00000000
 _ORBITAL        =   2100.30000000
 _STATUS         =      1.00000000
 _LASTORB        =    RHF
 _OUTPUT         =    /scr/yuriaoto/job.023112/RHF.xml
 _PGROUP         =    C2v 
 _TIME           =    18:17:18
 R               =      5.00000000

 Geometry written to block  1 of record 700


 **********************************************************************************************************************************
 DATASETS  * FILE   NREC   LENGTH (MB)   RECORD NAMES
              3       5       14.77       500      610      700     1000     2100   
                                          VAR    BASINP    GEOM     BASIS     RHF  

 PROGRAMS   *        TOTAL   RESTART
 CPU TIMES  *         0.12      0.03
 REAL TIME  *         0.15 SEC
 DISK USED  *        26.84 MB
 **********************************************************************************************************************************


 Recomputing integrals since basis changed


 Using spherical harmonics



 PROGRAM * SEWARD (Integral evaluation for generally contracted gaussian basis sets)     Author: Roland Lindh, 1990

 Geometry written to block  1 of record 700

 Orientation using atomic masses  
 Molecule type: Linear
 User-specified symmetry elements: X,Y
 Symmetry elements: X,Y
 Rotational constants:      20.8009354     20.8009354      0.0000000 GHz  (calculated with average atomic masses)

 Point group  C2v 



 ATOMIC COORDINATES

 NR  ATOM    CHARGE       X              Y              Z

   1  LI1     3.00    0.000000000    0.000000000   -2.500000000
   2  LI2     3.00    0.000000000    0.000000000    2.500000000

 Bond lengths in Bohr (Angstrom)

 1-2  5.000000000
     ( 2.645886055)


 BASIS DATA

   Nr Sym  Nuc  Type         Exponents   Contraction coefficients

    1.1 A1    1  1s        1469.000000     0.000766   -0.000120    0.000000
    2.1 A1                  220.500000     0.005892   -0.000923    0.000000
    3.1 A1                   50.260000     0.029671   -0.004689    0.000000
                             14.240000     0.109180   -0.017682    0.000000
                              4.581000     0.282789   -0.048902    0.000000
                              1.580000     0.453123   -0.096009    0.000000
                              0.564000     0.274774   -0.136380    0.000000
                              0.073450     0.009751    0.575102    0.000000
                              0.028050    -0.003180    0.517661    1.000000
    4.1 A1    2  1s        1469.000000     0.000766   -0.000120    0.000000
    5.1 A1                  220.500000     0.005892   -0.000923    0.000000
    6.1 A1                   50.260000     0.029671   -0.004689    0.000000
                             14.240000     0.109180   -0.017682    0.000000
                              4.581000     0.282789   -0.048902    0.000000
                              1.580000     0.453123   -0.096009    0.000000
                              0.564000     0.274774   -0.136380    0.000000
                              0.073450     0.009751    0.575102    0.000000
                              0.028050    -0.003180    0.517661    1.000000

 NUCLEAR CHARGE:                    6
 NUMBER OF PRIMITIVE AOS:          18
 NUMBER OF SYMMETRY AOS:           18
 NUMBER OF CONTRACTIONS:            6   (    6A1  +    0B1  +    0B2  +    0A2  )
 NUMBER OF CORE ORBITALS:           2   (    2A1  +    0B1  +    0B2  +    0A2  )
 NUMBER OF VALENCE ORBITALS:        2   (    2A1  +    0B1  +    0B2  +    0A2  )


 NUCLEAR REPULSION ENERGY    1.80000000

 Eigenvalues of metric

         1 0.222E-01 0.436E-01 0.688E+00 0.991E+00 0.101E+01 0.324E+01


 Contracted 2-electron integrals neglected if value below      1.0D-11
 AO integral compression algorithm  1   Integral accuracy      1.0D-11

     0.262 MB (compressed) written to integral file (100.0%)


 NUMBER OF SORTED TWO-ELECTRON INTEGRALS:        231.     BUFFER LENGTH:  32768
 NUMBER OF SEGMENTS:   1  SEGMENT LENGTH:        231      RECORD LENGTH: 524288

 Memory used in sort:       0.56 MW

 SORT1 READ         567. AND WROTE         231. INTEGRALS IN      1 RECORDS. CPU TIME:     0.00 SEC, REAL TIME:     0.00 SEC
 SORT2 READ         231. AND WROTE         231. INTEGRALS IN      1 RECORDS. CPU TIME:     0.00 SEC, REAL TIME:     0.01 SEC

 FILE SIZES:   FILE 1:    30.2 MBYTE,  FILE 4:     4.2 MBYTE,   TOTAL:     34.4 MBYTE

 OPERATOR DM      FOR CENTER  0  COORDINATES:    0.000000    0.000000    0.000000


 **********************************************************************************************************************************
 DATASETS  * FILE   NREC   LENGTH (MB)   RECORD NAMES
              1      19       29.94       500      700      610      900      950      970     1000      129      960     1100   
                                          VAR     GEOM    BASINP   SYMINP    ZMAT    AOBASIS   BASIS     P2S    ABASIS      S 
                                         1400     1410     1200     1210     1080     1600     1650     1300     1700   
                                           T        V       H0       H01     AOSYM     SMH    MOLCAS    ERIS     OPER   

              3       5       14.77       500      610      700     1000     2100   
                                          VAR    BASINP    GEOM     BASIS     RHF  

 PROGRAMS   *        TOTAL       INT   RESTART
 CPU TIMES  *         0.26      0.13      0.03
 REAL TIME  *         0.43 SEC
 DISK USED  *        49.42 MB
 **********************************************************************************************************************************


 PROGRAM * CISD (Closed-shell CI(SD))     Authors: C. Hampel, H.-J. Werner, 1991, M. Deegan, P.J. Knowles, 1992


 Input parameters for THRESH:

 ENERGY   =    1.00D-10
 COEFF    =    1.00D-12
 PRINTCI  =    0.000000
 THRPRINT =    0.000000

 Convergence thresholds:  THRVAR = 1.00D-24  THRDEN = 1.00D-10

 Number of closed-shell orbitals:   3 (   3 )
 Number of external orbitals:       3 (   3 )

 Molecular orbitals read from record     2100.3  Type=RHF/CANONICAL (state 1.1)

 Number of N-1 electron functions:               3
 Number of N-2 electron functions:               6
 Number of singly external CSFs:                 9
 Number of doubly external CSFs:                45
 Total number of CSFs:                          55

 Length of J-op  integral file:               0.00 MB
 Length of K-op  integral file:               0.03 MB

 Integral transformation finished. Total CPU:   0.00 sec, npass=  1  Memory used:   0.07 MW

 Reference energy:                    -14.86011275

 MP2 singlet pair energy:              -0.00671909
 MP2 triplet pair energy:              -0.00000001
 MP2 correlation energy:               -0.00671910
 MP2 total energy:                    -14.86683185

 SCS-MP2 correlation energy:           -0.00806291   (PS=  1.200000  PT=  0.333333)
 SCS-MP2 total energy:                -14.86817566

 ITER.      SQ.NORM     CORR.ENERGY   TOTAL ENERGY   ENERGY CHANGE        DEN1      VAR(S)    VAR(P)  DIIS     TIME  TIME/IT
   1      1.02675310    -0.01169794   -14.87181069    -0.00497884    -0.00253345  0.42D-05  0.21D-02  1  1     0.02     0.01
   2      1.06072711    -0.01265714   -14.87276989    -0.00095920    -0.00446153  0.66D-05  0.10D-03  2  2     0.02     0.01
   3      1.06941359    -0.01453120   -14.87464394    -0.00187406    -0.00081155  0.15D-05  0.25D-04  3  3     0.02     0.00
   4      1.07072385    -0.01460394   -14.87471669    -0.00007275    -0.00002118  0.16D-07  0.11D-06  4  4     0.02     0.00
   5      1.07148294    -0.01461656   -14.87472931    -0.00001262    -0.00006986  0.62D-08  0.24D-07  5  5     0.03     0.00
   6      1.07157343    -0.01461693   -14.87472968    -0.00000037    -0.00000790  0.68D-09  0.19D-09  6  6     0.03     0.00
   7      1.07149408    -0.01461694   -14.87472968    -0.00000000     0.00000753  0.20D-09  0.14D-10  6  1     0.03     0.00
   8      1.07149158    -0.01461694   -14.87472969    -0.00000000     0.00000024  0.17D-10  0.45D-11  6  3     0.03     0.00
   9      1.07149289    -0.01461694   -14.87472969    -0.00000000    -0.00000012  0.23D-13  0.83D-12  6  4     0.03     0.00
  10      1.07149300    -0.01461694   -14.87472969    -0.00000000    -0.00000001  0.12D-12  0.65D-13  6  2     0.04     0.00
  11      1.07149300    -0.01461694   -14.87472969    -0.00000000     0.00000000  0.97D-14  0.23D-14  6  5     0.04     0.00
  12      1.07149301    -0.01461694   -14.87472969    -0.00000000    -0.00000000  0.88D-16  0.52D-16  6  6     0.04     0.00
  13      1.07149301    -0.01461694   -14.87472969    -0.00000000    -0.00000000  0.52D-17  0.11D-16  6  1     0.04     0.00
  14      1.07149302    -0.01461694   -14.87472969     0.00000000    -0.00000000  0.91D-18  0.18D-17  6  3     0.04     0.00
  15      1.07149302    -0.01461694   -14.87472969     0.00000000    -0.00000000  0.12D-18  0.20D-19  6  4     0.05     0.00
  16      1.07149302    -0.01461694   -14.87472969     0.00000000    -0.00000000  0.24D-19  0.48D-20  6  2     0.05     0.00
  17      1.07149302    -0.01461694   -14.87472969     0.00000000     0.00000000  0.22D-20  0.17D-20  6  5     0.05     0.00
  18      1.07149302    -0.01461694   -14.87472969     0.00000000     0.00000000  0.34D-22  0.26D-21  6  6     0.05     0.00
  19      1.07149302    -0.01461694   -14.87472969     0.00000000    -0.00000000  0.32D-22  0.13D-22  6  1     0.06     0.00
  20      1.07149302    -0.01461694   -14.87472969     0.00000000    -0.00000000  0.63D-24  0.43D-24  6  3     0.06     0.00
  21      1.07149302    -0.01461694   -14.87472969     0.00000000    -0.00000000  0.77D-26  0.10D-24  6  4     0.06     0.00


 ! DIPOLE MOMENTS:                      0.00000000     0.00000000    -0.00000000



 Norm of t1 vector:      0.01188967      S-energy:    -0.00000193      T1 diagnostic:  0.00343225

 Singles amplitudes (print threshold =  0.000E+00):

         I         SYM. A    A   T(IA)

         1         1         1     -0.00000000
         1         1         2     -0.00008338
         1         1         3      0.00000000
         2         1         1      0.00031694
         2         1         2     -0.00000000
         2         1         3     -0.00018789
         3         1         1      0.00000000
         3         1         2     -0.00839877
         3         1         3     -0.00000000

 Doubles amplitudes (print threshold =  0.000E+00):

         I         J         SYM. A    SYM. B    A         B      T(IJ, AB)

         1         1         1         1         1         1     -0.00037572
         1         1         1         1         1         2      0.00000000
         1         1         1         1         1         3      0.00058229
         1         1         1         1         2         1      0.00000000
         1         1         1         1         2         2     -0.00032006
         1         1         1         1         2         3     -0.00000000
         1         1         1         1         3         1      0.00058229
         1         1         1         1         3         2     -0.00000000
         1         1         1         1         3         3     -0.00071479
         2         1         1         1         1         1      0.00000000
         2         1         1         1         1         2      0.00047821
         2         1         1         1         1         3     -0.00000000
         2         1         1         1         2         1      0.00048094
         2         1         1         1         2         2     -0.00000000
         2         1         1         1         2         3     -0.00053322
         2         1         1         1         3         1     -0.00000000
         2         1         1         1         3         2     -0.00053059
         2         1         1         1         3         3      0.00000000
         2         2         1         1         1         1     -0.00037929
         2         2         1         1         1         2     -0.00000000
         2         2         1         1         1         3      0.00058587
         2         2         1         1         2         1     -0.00000000
         2         2         1         1         2         2     -0.00031847
         2         2         1         1         2         3      0.00000000
         2         2         1         1         3         1      0.00058587
         2         2         1         1         3         2      0.00000000
         2         2         1         1         3         3     -0.00071834
         3         1         1         1         1         1      0.00024083
         3         1         1         1         1         2      0.00000000
         3         1         1         1         1         3     -0.00027493
         3         1         1         1         2         1      0.00000000
         3         1         1         1         2         2      0.00005636
         3         1         1         1         2         3     -0.00000000
         3         1         1         1         3         1     -0.00034477
         3         1         1         1         3         2     -0.00000000
         3         1         1         1         3         3      0.00033549
         3         2         1         1         1         1     -0.00000000
         3         2         1         1         1         2     -0.00039133
         3         2         1         1         1         3      0.00000000
         3         2         1         1         2         1     -0.00049132
         3         2         1         1         2         2     -0.00000000
         3         2         1         1         2         3      0.00044861
         3         2         1         1         3         1      0.00000000
         3         2         1         1         3         2      0.00037610
         3         2         1         1         3         3     -0.00000000
         3         3         1         1         1         1     -0.22276286
         3         3         1         1         1         2      0.00000000
         3         3         1         1         1         3      0.09309327
         3         3         1         1         2         1      0.00000000
         3         3         1         1         2         2     -0.04722288
         3         3         1         1         2         3     -0.00000000
         3         3         1         1         3         1      0.09309327
         3         3         1         1         3         2     -0.00000000
         3         3         1         1         3         3     -0.04645930


 RESULTS
 =======

  Reference energy                    -14.860112747722

  Correlated core orbitals:             1.1       2.1
  Orbital energies:                    -2.4673   -2.4669

  CISD core-core energy                -0.000031726095
  CISD core-valence energy             -0.000004898694
  CISD valence correlation energy      -0.014580314533

  CISD singlet pair energy             -0.014615007725
  CISD triplet pair energy             -0.000000003104
  CISD correlation energy              -0.014616939321

 !CISD total energy                   -14.874729687043

 Timing summary (sec):

 STEP                 CPU(USER)    SYS     CPU(TOT)    WALL
 CCSD iterations         0.06      0.01      0.07      0.09

 Program statistics:

 Available memory in ccsd:                39999164
 Min. memory needed in ccsd:                   883
 Max. memory used in ccsd:                     883
 Max. memory used in cckext:                 33776 (21 integral passes)



 **********************************************************************************************************************************
 DATASETS  * FILE   NREC   LENGTH (MB)   RECORD NAMES
              1      20       29.95       500      700      610      900      950      970     1000      129      960     1100   
                                          VAR     GEOM    BASINP   SYMINP    ZMAT    AOBASIS   BASIS     P2S    ABASIS      S 
                                         1400     1410     1200     1210     1080     1600     1650     1300     1700     1380   
                                           T        V       H0       H01     AOSYM     SMH    MOLCAS    ERIS     OPER     JKOP   

              3       5       14.77       500      610      700     1000     2100   
                                          VAR    BASINP    GEOM     BASIS     RHF  

 PROGRAMS   *        TOTAL      CISD       INT   RESTART
 CPU TIMES  *         0.38      0.12      0.13      0.03
 REAL TIME  *         0.58 SEC
 DISK USED  *        49.42 MB
 **********************************************************************************************************************************
 Molecular orbitals read from record     2100.3  Type=RHF/CANONICAL (state 1.1)
 Occupation numbers read from record     2100.3  Type=RHF/RHF (state 1.1)
 Orbital energies read from record       2100.3  Type=RHF/CANONICAL (state 1.1)
 Redundancy group numbers read from rec  2100.3  Type=RHF/RHF (state 1.1)

 CISD/USERDEF energy=    -14.874729687043

            CISD
    -14.87472969
 **********************************************************************************************************************************
 Molpro calculation terminated
