
 Primary working directories    : /scr/yuriaoto/job.023113/molpro.9TuZEoWUj0
 Secondary working directories  : /scr/yuriaoto/job.023113/molpro.9TuZEoWUj0
 Wavefunction directory         : /scr/yuriaoto/job.023113/
 Main file repository           : /scr/yuriaoto/job.023113/molpro.9TuZEoWUj0/

 id        : yuriaoto

 Nodes             nprocs
 t-rex.ufabc.int.br    1

 Using customized tuning parameters: mindgm=8; mindgv=16; mindgc=1; mindgr=1; noblas=0; minvec=7
 default implementation of scratch files=df  


 Variables initialized (933), CPU time= 0.01 sec
 ***,
 memory,40,m
 gprint,orbital,basis,civector
 gthresh,thrprint=0,printci=0.0
 file,3,wfu.dat,old
 
 {fci
 wf,6,1,0;
 core,0
 }
 Commands  initialized (760), CPU time= 0.01 sec, 617 directives.
 Default parameters read. Elapsed time= 0.05 sec

 Checking input...
 Passed
1


                                         ***  PROGRAM SYSTEM MOLPRO  ***
                                       Copyright, TTI GmbH Stuttgart, 2015
                                    Version 2019.2 linked Abr  7 2019 15:10:35


 **********************************************************************************************************************************
 LABEL *                                                                                 
  64 bit serial version                                                                  DATE: 27-Apr-20          TIME: 18:28:05  
 **********************************************************************************************************************************

 SHA1:             3a8a58c585c929645742fb5a1b7541a4ad1da699
 **********************************************************************************************************************************


 THRESHOLDS:

 ZERO    =  1.00D-12  ONEINT  =  1.00D-12  TWOINT  =  1.00D-11  PREFAC  =  1.00D-14  XXXXXX  =  1.00D-09  EORDER  =  1.00D-04
 ENERGY  =  0.00D+00  ETEST   =  0.00D+00  EDENS   =  0.00D+00  THRDEDEF=  1.00D-06  GRADIENT=  1.00D-02  STEP    =  1.00D-03
 ORBITAL =  1.00D-05  CIVEC   =  1.00D-05  COEFF   =  1.00D-04  PRINTCI =  0.00D+00  PUNCHCI =  9.90D+01  OPTGRAD =  3.00D-04
 OPTENERG=  1.00D-06  OPTSTEP =  3.00D-04  THRGRAD =  1.00D-10  COMPRESS=  1.00D-11  VARMIN  =  1.00D-07  VARMAX  =  1.00D-03
 THRDOUB =  0.00D+00  THRDIV  =  1.00D-05  THRRED  =  1.00D-07  THRPSP  =  1.00D+00  THRDC   =  1.00D-10  THRCS   =  1.00D-10
 THRNRM  =  1.00D-08  THREQ   =  0.00D+00  THRDE   =  1.00D+00  THRREF  =  1.00D-05  SPARFAC =  1.00D+00  THRDLP  =  1.00D-07
 THRDIA  =  1.00D-10  THRDLS  =  1.00D-07  THRGPS  =  0.00D+00  THRKEX  =  0.00D+00  THRDIS  =  2.00D-01  THRVAR  =  1.00D-10
 THRLOC  =  1.00D-06  THRGAP  =  1.00D-06  THRLOCT = -1.00D+00  THRGAPT = -1.00D+00  THRORB  =  1.00D-06  THRMLTP =  0.00D+00
 THRCPQCI=  1.00D-10  KEXTA   =  0.00D+00  THRCOARS=  0.00D+00  SYMTOL  =  1.00D-06  GRADTOL =  1.00D-06  THROVL  =  1.00D-08
 THRORTH =  1.00D-08  GRID    =  1.00D-06  GRIDMAX =  1.00D-03  DTMAX   =  0.00D+00  THROCCDE=  1.00D-01  THROCCDE=  1.00D-01
 THRPRINT=  0.00D+00


 Variable memory set to   40000000 words,  buffer space 



 Permanent file  3  wfu.dat  assigned.  Implementation=df    Size= 14.08 MB


 PROGRAM * RESTART 


 Reading variables from file 3

 _FNUC           =      0.00000000
 _BASIS          =    USERDEF
 _NELEC          =      6.00000000
 _PROGRAM        =    RHF-SCF
 _DMZ            =     -0.00000000
 _DMX_SCF        =      0.00000000
 _DMY_SCF        =      0.00000000
 _DMZ_SCF        =     -0.00000000
 _HOMO           =      3.10000000
 _EHOMO          =     -0.18597655
 _LUMO           =      4.10000000
 _ELUMO          =      0.01067434
 _ENERGY         =    -14.86011275
 _ENERGY_METHOD  =    RHF
 _ENERGY_BASIS   =    USERDEF
 _ENUC           =      1.80000000
 _EPS1(1:6)      =     -2.46726903    -2.46691860    -0.18597655     0.01067434     0.13061279     0.19993170
 _IPROC_MPP      =      0.00000000
 _IPROC_MPPX     =      0.00000000
 _ORBITAL        =   2100.30000000
 _STATUS         =      1.00000000
 _LASTORB        =    RHF
 _OUTPUT         =    /scr/yuriaoto/job.023112/RHF.xml
 _PGROUP         =    C2v 
 _TIME           =    18:17:18
 R               =      5.00000000

 Geometry written to block  1 of record 700


 **********************************************************************************************************************************
 DATASETS  * FILE   NREC   LENGTH (MB)   RECORD NAMES
              3       5       14.77       500      610      700     1000     2100   
                                          VAR    BASINP    GEOM     BASIS     RHF  

 PROGRAMS   *        TOTAL   RESTART
 CPU TIMES  *         0.12      0.02
 REAL TIME  *         0.14 SEC
 DISK USED  *        26.84 MB
 **********************************************************************************************************************************


 Recomputing integrals since basis changed


 Using spherical harmonics



 PROGRAM * SEWARD (Integral evaluation for generally contracted gaussian basis sets)     Author: Roland Lindh, 1990

 Geometry written to block  1 of record 700

 Orientation using atomic masses  
 Molecule type: Linear
 User-specified symmetry elements: X,Y
 Symmetry elements: X,Y
 Rotational constants:      20.8009354     20.8009354      0.0000000 GHz  (calculated with average atomic masses)

 Point group  C2v 



 ATOMIC COORDINATES

 NR  ATOM    CHARGE       X              Y              Z

   1  LI1     3.00    0.000000000    0.000000000   -2.500000000
   2  LI2     3.00    0.000000000    0.000000000    2.500000000

 Bond lengths in Bohr (Angstrom)

 1-2  5.000000000
     ( 2.645886055)


 BASIS DATA

   Nr Sym  Nuc  Type         Exponents   Contraction coefficients

    1.1 A1    1  1s        1469.000000     0.000766   -0.000120    0.000000
    2.1 A1                  220.500000     0.005892   -0.000923    0.000000
    3.1 A1                   50.260000     0.029671   -0.004689    0.000000
                             14.240000     0.109180   -0.017682    0.000000
                              4.581000     0.282789   -0.048902    0.000000
                              1.580000     0.453123   -0.096009    0.000000
                              0.564000     0.274774   -0.136380    0.000000
                              0.073450     0.009751    0.575102    0.000000
                              0.028050    -0.003180    0.517661    1.000000
    4.1 A1    2  1s        1469.000000     0.000766   -0.000120    0.000000
    5.1 A1                  220.500000     0.005892   -0.000923    0.000000
    6.1 A1                   50.260000     0.029671   -0.004689    0.000000
                             14.240000     0.109180   -0.017682    0.000000
                              4.581000     0.282789   -0.048902    0.000000
                              1.580000     0.453123   -0.096009    0.000000
                              0.564000     0.274774   -0.136380    0.000000
                              0.073450     0.009751    0.575102    0.000000
                              0.028050    -0.003180    0.517661    1.000000

 NUCLEAR CHARGE:                    6
 NUMBER OF PRIMITIVE AOS:          18
 NUMBER OF SYMMETRY AOS:           18
 NUMBER OF CONTRACTIONS:            6   (    6A1  +    0B1  +    0B2  +    0A2  )
 NUMBER OF CORE ORBITALS:           2   (    2A1  +    0B1  +    0B2  +    0A2  )
 NUMBER OF VALENCE ORBITALS:        2   (    2A1  +    0B1  +    0B2  +    0A2  )


 NUCLEAR REPULSION ENERGY    1.80000000

 Eigenvalues of metric

         1 0.222E-01 0.436E-01 0.688E+00 0.991E+00 0.101E+01 0.324E+01


 Contracted 2-electron integrals neglected if value below      1.0D-11
 AO integral compression algorithm  1   Integral accuracy      1.0D-11

     0.262 MB (compressed) written to integral file (100.0%)


 NUMBER OF SORTED TWO-ELECTRON INTEGRALS:        231.     BUFFER LENGTH:  32768
 NUMBER OF SEGMENTS:   1  SEGMENT LENGTH:        231      RECORD LENGTH: 524288

 Memory used in sort:       0.56 MW

 SORT1 READ         567. AND WROTE         231. INTEGRALS IN      1 RECORDS. CPU TIME:     0.00 SEC, REAL TIME:     0.00 SEC
 SORT2 READ         231. AND WROTE         231. INTEGRALS IN      1 RECORDS. CPU TIME:     0.00 SEC, REAL TIME:     0.01 SEC

 FILE SIZES:   FILE 1:    30.2 MBYTE,  FILE 4:     4.2 MBYTE,   TOTAL:     34.4 MBYTE

 OPERATOR DM      FOR CENTER  0  COORDINATES:    0.000000    0.000000    0.000000


 **********************************************************************************************************************************
 DATASETS  * FILE   NREC   LENGTH (MB)   RECORD NAMES
              1      19       29.94       500      700      610      900      950      970     1000      129      960     1100   
                                          VAR     GEOM    BASINP   SYMINP    ZMAT    AOBASIS   BASIS     P2S    ABASIS      S 
                                         1400     1410     1200     1210     1080     1600     1650     1300     1700   
                                           T        V       H0       H01     AOSYM     SMH    MOLCAS    ERIS     OPER   

              3       5       14.77       500      610      700     1000     2100   
                                          VAR    BASINP    GEOM     BASIS     RHF  

 PROGRAMS   *        TOTAL       INT   RESTART
 CPU TIMES  *         0.26      0.14      0.02
 REAL TIME  *         0.41 SEC
 DISK USED  *        49.42 MB
 **********************************************************************************************************************************


 PROGRAM * FCI (Full CI)     Author: P.J. Knowles, 1984


 Molecular orbitals read from record     2100.3  Type=RHF/CANONICAL (state 1.1)

 Frozen orbitals:              0 (  0  0  0  0  0  0  0  0)
 Active orbitals:              6 (  6  0  0  0  0  0  0  0)
 Active electrons:             6
 Spin quantum number:          0.0
 Orbital pairs:                    21       0       0       0       0       0       0       0
 Strings:                          20       0       0       0       0       0       0       0
                                   20       0       0       0       0       0       0       0
 Determinants:                            400               0               0               0
                                            0               0               0               0

 Load integrals                1.0 sec
 Transform integrals           1.0 sec
 Storage for integrals:            519
 Remaining memory:            39998573

 Core energy:               1.80000000
 Run Hamiltonian processor DAVIDSON
 Symmetry:                   1
 Trial vector:                  0.00
 Result vector:                 0.00
 Maximum iterations:           90
 Convergence threshold:         0.0000100
 RHS vector:                    0.00
 Hamiltonian shift:             0.0000000
 Output threshold:              0.0000000
 Options:                        0
 Number of roots:             1

 Hamiltonian diagonaliser entered at time      0.99

 Initial configuration generated:
       1      1.0000000    -14.8601127

 It  Tr    CPU  Convergence   Energy       Pop     dE(next)

  1   1    1.0  1.00000000   -14.86011275
                                           0.01 -0.01331256 -0.01326302
  2   1    1.0  0.25448589   -14.87443073
                                           0.05 -0.00033556 -0.00032457
  3   1    1.0  0.02605112   -14.87471327
                                           0.10 -0.00001892 -0.00001777
  4   1    1.0  0.00581587   -14.87473045
                                           0.20 -0.00000144 -0.00000135
  5   1    1.0  0.00071178   -14.87473169
                                           0.14 -0.00000009 -0.00000008
  6   1    1.0  0.00019981   -14.87473178
                                           0.16 -0.00000000 -0.00000000
  7   1    1.0  0.00003471   -14.87473178
                                           0.18 -0.00000000 -0.00000000
  8   1    1.0  0.00000852   -14.87473178


RESULTS FOR STATE  1.1
=====================

 Correlation energy                    -0.014619033203
 !FCI STATE  1.1 Energy               -14.874731780925
 CI Vector (threshold=  0.00    )
       0.966052199743  1  2  3  1  2  3
       0.000000000000  1  2  3  1  2  4
      -0.008103109242  1  2  3  1  2  5
       0.000000000000  1  2  3  1  2  6
      -0.000305841515  1  2  3  1  3  4
       0.000000000000  1  2  3  1  3  5
       0.000180849522  1  2  3  1  3  6
      -0.000096025837  1  2  3  1  4  5
       0.000000000000  1  2  3  1  4  6
      -0.000070836579  1  2  3  1  5  6
       0.000000000000  1  2  3  2  3  4
      -0.000082646317  1  2  3  2  3  5
       0.000000000000  1  2  3  2  3  6
       0.000000000000  1  2  3  2  4  5
       0.000058898747  1  2  3  2  4  6
       0.000000000000  1  2  3  2  5  6
       0.000002626364  1  2  3  3  4  5
       0.000000000000  1  2  3  3  4  6
       0.000002508546  1  2  3  3  5  6
       0.000000000000  1  2  3  4  5  6
       0.000000000000  1  2  4  1  2  3
      -0.215246889768  1  2  4  1  2  4
       0.000000000000  1  2  4  1  2  5
       0.089935380764  1  2  4  1  2  6
       0.000000000000  1  2  4  1  3  4
       0.000373172594  1  2  4  1  3  5
       0.000000000000  1  2  4  1  3  6
       0.000000000000  1  2  4  1  4  5
       0.000060502564  1  2  4  1  4  6
       0.000000000000  1  2  4  1  5  6
       0.000243212979  1  2  4  2  3  4
       0.000000000000  1  2  4  2  3  5
      -0.000271727367  1  2  4  2  3  6
       0.000078203011  1  2  4  2  4  5
       0.000000000000  1  2  4  2  4  6
       0.000037425198  1  2  4  2  5  6
       0.000000000000  1  2  4  3  4  5
       0.000000000000  1  2  4  3  4  6
       0.000000000000  1  2  4  3  5  6
       0.000000000000  1  2  4  4  5  6
      -0.008103109242  1  2  5  1  2  3
       0.000000000000  1  2  5  1  2  4
      -0.045631696978  1  2  5  1  2  5
       0.000000000000  1  2  5  1  2  6
       0.000469208107  1  2  5  1  3  4
       0.000000000000  1  2  5  1  3  5
      -0.000431722198  1  2  5  1  3  6
       0.000075449703  1  2  5  1  4  5
       0.000000000000  1  2  5  1  4  6
       0.000053311229  1  2  5  1  5  6
       0.000000000000  1  2  5  2  3  4
       0.000056297697  1  2  5  2  3  5
       0.000000000000  1  2  5  2  3  6
       0.000000000000  1  2  5  2  4  5
      -0.000033655806  1  2  5  2  4  6
       0.000000000000  1  2  5  2  5  6
       0.000000000000  1  2  5  3  4  5
       0.000000000000  1  2  5  3  4  6
       0.000000000000  1  2  5  3  5  6
       0.000000000000  1  2  5  4  5  6
       0.000000000000  1  2  6  1  2  3
       0.089935380764  1  2  6  1  2  4
       0.000000000000  1  2  6  1  2  5
      -0.044880465465  1  2  6  1  2  6
       0.000000000000  1  2  6  1  3  4
      -0.000360821909  1  2  6  1  3  5
       0.000000000000  1  2  6  1  3  6
       0.000000000000  1  2  6  1  4  5
       0.000014282490  1  2  6  1  4  6
       0.000000000000  1  2  6  1  5  6
      -0.000330463477  1  2  6  2  3  4
       0.000000000000  1  2  6  2  3  5
       0.000324185368  1  2  6  2  3  6
      -0.000071332478  1  2  6  2  4  5
       0.000000000000  1  2  6  2  4  6
      -0.000030687478  1  2  6  2  5  6
       0.000000000000  1  2  6  3  4  5
       0.000000000000  1  2  6  3  4  6
       0.000000000000  1  2  6  3  5  6
       0.000000000000  1  2  6  4  5  6
      -0.000305841515  1  3  4  1  2  3
       0.000000000000  1  3  4  1  2  4
       0.000469208107  1  3  4  1  2  5
       0.000000000000  1  3  4  1  2  6
      -0.000356831222  1  3  4  1  3  4
       0.000000000000  1  3  4  1  3  5
       0.000566047596  1  3  4  1  3  6
       0.000155601628  1  3  4  1  4  5
       0.000000000000  1  3  4  1  4  6
       0.000059680337  1  3  4  1  5  6
       0.000000000000  1  3  4  2  3  4
      -0.000466364319  1  3  4  2  3  5
       0.000000000000  1  3  4  2  3  6
       0.000000000000  1  3  4  2  4  5
      -0.000135906376  1  3  4  2  4  6
       0.000000000000  1  3  4  2  5  6
       0.000000602268  1  3  4  3  4  5
       0.000000000000  1  3  4  3  4  6
       0.000000662202  1  3  4  3  5  6
       0.000000000000  1  3  4  4  5  6
       0.000000000000  1  3  5  1  2  3
       0.000373172594  1  3  5  1  2  4
       0.000000000000  1  3  5  1  2  5
      -0.000360821909  1  3  5  1  2  6
       0.000000000000  1  3  5  1  3  4
      -0.000304531246  1  3  5  1  3  5
       0.000000000000  1  3  5  1  3  6
       0.000000000000  1  3  5  1  4  5
       0.000000000000  1  3  5  1  4  6
       0.000000000000  1  3  5  1  5  6
      -0.000469047300  1  3  5  2  3  4
       0.000000000000  1  3  5  2  3  5
       0.000518340077  1  3  5  2  3  6
      -0.000049634307  1  3  5  2  4  5
       0.000000000000  1  3  5  2  4  6
      -0.000051738517  1  3  5  2  5  6
       0.000000000000  1  3  5  3  4  5
       0.000000000000  1  3  5  3  4  6
       0.000000000000  1  3  5  3  5  6
       0.000000000000  1  3  5  4  5  6
       0.000180849522  1  3  6  1  2  3
       0.000000000000  1  3  6  1  2  4
      -0.000431722198  1  3  6  1  2  5
       0.000000000000  1  3  6  1  2  6
       0.000566047596  1  3  6  1  3  4
       0.000000000000  1  3  6  1  3  5
      -0.000695883686  1  3  6  1  3  6
      -0.000059666117  1  3  6  1  4  5
       0.000000000000  1  3  6  1  4  6
      -0.000024327899  1  3  6  1  5  6
       0.000000000000  1  3  6  2  3  4
       0.000515775904  1  3  6  2  3  5
       0.000000000000  1  3  6  2  3  6
       0.000000000000  1  3  6  2  4  5
       0.000048975745  1  3  6  2  4  6
       0.000000000000  1  3  6  2  5  6
      -0.000000679563  1  3  6  3  4  5
       0.000000000000  1  3  6  3  4  6
      -0.000000714024  1  3  6  3  5  6
       0.000000000000  1  3  6  4  5  6
      -0.000096025837  1  4  5  1  2  3
       0.000000000000  1  4  5  1  2  4
       0.000075449703  1  4  5  1  2  5
       0.000000000000  1  4  5  1  2  6
       0.000155601628  1  4  5  1  3  4
       0.000000000000  1  4  5  1  3  5
      -0.000059666117  1  4  5  1  3  6
       0.000120593367  1  4  5  1  4  5
       0.000000000000  1  4  5  1  4  6
       0.000070092420  1  4  5  1  5  6
       0.000000000000  1  4  5  2  3  4
      -0.000049492667  1  4  5  2  3  5
       0.000000000000  1  4  5  2  3  6
       0.000000000000  1  4  5  2  4  5
      -0.000074016441  1  4  5  2  4  6
       0.000000000000  1  4  5  2  5  6
       0.000000388096  1  4  5  3  4  5
       0.000000000000  1  4  5  3  4  6
       0.000000462548  1  4  5  3  5  6
       0.000000000000  1  4  5  4  5  6
       0.000000000000  1  4  6  1  2  3
       0.000060502564  1  4  6  1  2  4
       0.000000000000  1  4  6  1  2  5
       0.000014282490  1  4  6  1  2  6
       0.000000000000  1  4  6  1  3  4
       0.000000000000  1  4  6  1  3  5
       0.000000000000  1  4  6  1  3  6
       0.000000000000  1  4  6  1  4  5
       0.000069906026  1  4  6  1  4  6
       0.000000000000  1  4  6  1  5  6
      -0.000135694879  1  4  6  2  3  4
       0.000000000000  1  4  6  2  3  5
       0.000048958221  1  4  6  2  3  6
      -0.000073725064  1  4  6  2  4  5
       0.000000000000  1  4  6  2  4  6
      -0.000027538651  1  4  6  2  5  6
       0.000000000000  1  4  6  3  4  5
       0.000000000000  1  4  6  3  4  6
       0.000000000000  1  4  6  3  5  6
       0.000000000000  1  4  6  4  5  6
      -0.000070836579  1  5  6  1  2  3
       0.000000000000  1  5  6  1  2  4
       0.000053311229  1  5  6  1  2  5
       0.000000000000  1  5  6  1  2  6
       0.000059680337  1  5  6  1  3  4
       0.000000000000  1  5  6  1  3  5
      -0.000024327899  1  5  6  1  3  6
       0.000070092420  1  5  6  1  4  5
       0.000000000000  1  5  6  1  4  6
       0.000054622160  1  5  6  1  5  6
       0.000000000000  1  5  6  2  3  4
      -0.000051648850  1  5  6  2  3  5
       0.000000000000  1  5  6  2  3  6
       0.000000000000  1  5  6  2  4  5
      -0.000027626383  1  5  6  2  4  6
       0.000000000000  1  5  6  2  5  6
       0.000000452242  1  5  6  3  4  5
       0.000000000000  1  5  6  3  4  6
       0.000000505377  1  5  6  3  5  6
       0.000000000000  1  5  6  4  5  6
       0.000000000000  2  3  4  1  2  3
       0.000243212979  2  3  4  1  2  4
       0.000000000000  2  3  4  1  2  5
      -0.000330463477  2  3  4  1  2  6
       0.000000000000  2  3  4  1  3  4
      -0.000469047300  2  3  4  1  3  5
       0.000000000000  2  3  4  1  3  6
       0.000000000000  2  3  4  1  4  5
      -0.000135694879  2  3  4  1  4  6
       0.000000000000  2  3  4  1  5  6
      -0.000353447905  2  3  4  2  3  4
       0.000000000000  2  3  4  2  3  5
       0.000562605588  2  3  4  2  3  6
       0.000155361909  2  3  4  2  4  5
       0.000000000000  2  3  4  2  4  6
       0.000059400967  2  3  4  2  5  6
       0.000000000000  2  3  4  3  4  5
       0.000000000000  2  3  4  3  4  6
       0.000000000000  2  3  4  3  5  6
       0.000000000000  2  3  4  4  5  6
      -0.000082646317  2  3  5  1  2  3
       0.000000000000  2  3  5  1  2  4
       0.000056297697  2  3  5  1  2  5
       0.000000000000  2  3  5  1  2  6
      -0.000466364319  2  3  5  1  3  4
       0.000000000000  2  3  5  1  3  5
       0.000515775904  2  3  5  1  3  6
      -0.000049492667  2  3  5  1  4  5
       0.000000000000  2  3  5  1  4  6
      -0.000051648850  2  3  5  1  5  6
       0.000000000000  2  3  5  2  3  4
      -0.000306151285  2  3  5  2  3  5
       0.000000000000  2  3  5  2  3  6
       0.000000000000  2  3  5  2  4  5
       0.000000000000  2  3  5  2  4  6
       0.000000000000  2  3  5  2  5  6
       0.000000000000  2  3  5  3  4  5
       0.000000000000  2  3  5  3  4  6
       0.000000000000  2  3  5  3  5  6
       0.000000000000  2  3  5  4  5  6
       0.000000000000  2  3  6  1  2  3
      -0.000271727367  2  3  6  1  2  4
       0.000000000000  2  3  6  1  2  5
       0.000324185368  2  3  6  1  2  6
       0.000000000000  2  3  6  1  3  4
       0.000518340077  2  3  6  1  3  5
       0.000000000000  2  3  6  1  3  6
       0.000000000000  2  3  6  1  4  5
       0.000048958221  2  3  6  1  4  6
       0.000000000000  2  3  6  1  5  6
       0.000562605588  2  3  6  2  3  4
       0.000000000000  2  3  6  2  3  5
      -0.000692472617  2  3  6  2  3  6
      -0.000059381020  2  3  6  2  4  5
       0.000000000000  2  3  6  2  4  6
      -0.000024127250  2  3  6  2  5  6
       0.000000000000  2  3  6  3  4  5
       0.000000000000  2  3  6  3  4  6
       0.000000000000  2  3  6  3  5  6
       0.000000000000  2  3  6  4  5  6
       0.000000000000  2  4  5  1  2  3
       0.000078203011  2  4  5  1  2  4
       0.000000000000  2  4  5  1  2  5
      -0.000071332478  2  4  5  1  2  6
       0.000000000000  2  4  5  1  3  4
      -0.000049634307  2  4  5  1  3  5
       0.000000000000  2  4  5  1  3  6
       0.000000000000  2  4  5  1  4  5
      -0.000073725064  2  4  5  1  4  6
       0.000000000000  2  4  5  1  5  6
       0.000155361909  2  4  5  2  3  4
       0.000000000000  2  4  5  2  3  5
      -0.000059381020  2  4  5  2  3  6
       0.000119964612  2  4  5  2  4  5
       0.000000000000  2  4  5  2  4  6
       0.000069628307  2  4  5  2  5  6
       0.000000000000  2  4  5  3  4  5
       0.000000000000  2  4  5  3  4  6
       0.000000000000  2  4  5  3  5  6
       0.000000000000  2  4  5  4  5  6
       0.000058898747  2  4  6  1  2  3
       0.000000000000  2  4  6  1  2  4
      -0.000033655806  2  4  6  1  2  5
       0.000000000000  2  4  6  1  2  6
      -0.000135906376  2  4  6  1  3  4
       0.000000000000  2  4  6  1  3  5
       0.000048975745  2  4  6  1  3  6
      -0.000074016441  2  4  6  1  4  5
       0.000000000000  2  4  6  1  4  6
      -0.000027626383  2  4  6  1  5  6
       0.000000000000  2  4  6  2  3  4
       0.000000000000  2  4  6  2  3  5
       0.000000000000  2  4  6  2  3  6
       0.000000000000  2  4  6  2  4  5
       0.000069654422  2  4  6  2  4  6
       0.000000000000  2  4  6  2  5  6
       0.000000000000  2  4  6  3  4  5
       0.000000000000  2  4  6  3  4  6
       0.000000000000  2  4  6  3  5  6
       0.000000000000  2  4  6  4  5  6
       0.000000000000  2  5  6  1  2  3
       0.000037425198  2  5  6  1  2  4
       0.000000000000  2  5  6  1  2  5
      -0.000030687478  2  5  6  1  2  6
       0.000000000000  2  5  6  1  3  4
      -0.000051738517  2  5  6  1  3  5
       0.000000000000  2  5  6  1  3  6
       0.000000000000  2  5  6  1  4  5
      -0.000027538651  2  5  6  1  4  6
       0.000000000000  2  5  6  1  5  6
       0.000059400967  2  5  6  2  3  4
       0.000000000000  2  5  6  2  3  5
      -0.000024127250  2  5  6  2  3  6
       0.000069628307  2  5  6  2  4  5
       0.000000000000  2  5  6  2  4  6
       0.000054138299  2  5  6  2  5  6
       0.000000000000  2  5  6  3  4  5
       0.000000000000  2  5  6  3  4  6
       0.000000000000  2  5  6  3  5  6
       0.000000000000  2  5  6  4  5  6
       0.000002626364  3  4  5  1  2  3
       0.000000000000  3  4  5  1  2  4
       0.000000000000  3  4  5  1  2  5
       0.000000000000  3  4  5  1  2  6
       0.000000602268  3  4  5  1  3  4
       0.000000000000  3  4  5  1  3  5
      -0.000000679563  3  4  5  1  3  6
       0.000000388096  3  4  5  1  4  5
       0.000000000000  3  4  5  1  4  6
       0.000000452242  3  4  5  1  5  6
       0.000000000000  3  4  5  2  3  4
       0.000000000000  3  4  5  2  3  5
       0.000000000000  3  4  5  2  3  6
       0.000000000000  3  4  5  2  4  5
       0.000000000000  3  4  5  2  4  6
       0.000000000000  3  4  5  2  5  6
       0.000000732523  3  4  5  3  4  5
       0.000000000000  3  4  5  3  4  6
       0.000000796476  3  4  5  3  5  6
       0.000000000000  3  4  5  4  5  6
       0.000000000000  3  4  6  1  2  3
       0.000000000000  3  4  6  1  2  4
       0.000000000000  3  4  6  1  2  5
       0.000000000000  3  4  6  1  2  6
       0.000000000000  3  4  6  1  3  4
       0.000000000000  3  4  6  1  3  5
       0.000000000000  3  4  6  1  3  6
       0.000000000000  3  4  6  1  4  5
       0.000000000000  3  4  6  1  4  6
       0.000000000000  3  4  6  1  5  6
       0.000000000000  3  4  6  2  3  4
       0.000000000000  3  4  6  2  3  5
       0.000000000000  3  4  6  2  3  6
       0.000000000000  3  4  6  2  4  5
       0.000000000000  3  4  6  2  4  6
       0.000000000000  3  4  6  2  5  6
       0.000000000000  3  4  6  3  4  5
      -0.000000324577  3  4  6  3  4  6
       0.000000000000  3  4  6  3  5  6
       0.000000000000  3  4  6  4  5  6
       0.000002508546  3  5  6  1  2  3
       0.000000000000  3  5  6  1  2  4
       0.000000000000  3  5  6  1  2  5
       0.000000000000  3  5  6  1  2  6
       0.000000662202  3  5  6  1  3  4
       0.000000000000  3  5  6  1  3  5
      -0.000000714024  3  5  6  1  3  6
       0.000000462548  3  5  6  1  4  5
       0.000000000000  3  5  6  1  4  6
       0.000000505377  3  5  6  1  5  6
       0.000000000000  3  5  6  2  3  4
       0.000000000000  3  5  6  2  3  5
       0.000000000000  3  5  6  2  3  6
       0.000000000000  3  5  6  2  4  5
       0.000000000000  3  5  6  2  4  6
       0.000000000000  3  5  6  2  5  6
       0.000000796476  3  5  6  3  4  5
       0.000000000000  3  5  6  3  4  6
       0.000000886836  3  5  6  3  5  6
       0.000000000000  3  5  6  4  5  6
       0.000000000000  4  5  6  1  2  3
       0.000000000000  4  5  6  1  2  4
       0.000000000000  4  5  6  1  2  5
       0.000000000000  4  5  6  1  2  6
       0.000000000000  4  5  6  1  3  4
       0.000000000000  4  5  6  1  3  5
       0.000000000000  4  5  6  1  3  6
       0.000000000000  4  5  6  1  4  5
       0.000000000000  4  5  6  1  4  6
       0.000000000000  4  5  6  1  5  6
       0.000000000000  4  5  6  2  3  4
       0.000000000000  4  5  6  2  3  5
       0.000000000000  4  5  6  2  3  6
       0.000000000000  4  5  6  2  4  5
       0.000000000000  4  5  6  2  4  6
       0.000000000000  4  5  6  2  5  6
       0.000000000000  4  5  6  3  4  5
       0.000000000000  4  5  6  3  4  6
       0.000000000000  4  5  6  3  5  6
       0.000000000000  4  5  6  4  5  6
 /EOF
 !FCI STATE  1.1 Dipole moment          0.00000000     0.00000000    -0.00000000
 Dipole moment /Debye                   0.00000000     0.00000000    -0.00000000


 **********************************************************************************************************************************
 DATASETS  * FILE   NREC   LENGTH (MB)   RECORD NAMES
              1      19       29.94       500      700      610      900      950      970     1000      129      960     1100   
                                          VAR     GEOM    BASINP   SYMINP    ZMAT    AOBASIS   BASIS     P2S    ABASIS      S 
                                         1400     1410     1200     1210     1080     1600     1650     1300     1700   
                                           T        V       H0       H01     AOSYM     SMH    MOLCAS    ERIS     OPER   

              3       5       14.77       500      610      700     1000     2100   
                                          VAR    BASINP    GEOM     BASIS     RHF  

 PROGRAMS   *        TOTAL       FCI       INT   RESTART
 CPU TIMES  *         0.27      0.01      0.14      0.02
 REAL TIME  *         0.42 SEC
 DISK USED  *        49.42 MB
 **********************************************************************************************************************************
 Molecular orbitals read from record     2100.3  Type=RHF/CANONICAL (state 1.1)
 Occupation numbers read from record     2100.3  Type=RHF/RHF (state 1.1)
 Orbital energies read from record       2100.3  Type=RHF/CANONICAL (state 1.1)
 Redundancy group numbers read from rec  2100.3  Type=RHF/RHF (state 1.1)

 FCI/USERDEF energy=    -14.874731780925

             FCI
    -14.87473178
 **********************************************************************************************************************************
 Molpro calculation terminated
