
 Primary working directories    : /scr/yuriaoto/job.032881/molpro.Hofcc6mIIt
 Secondary working directories  : /scr/yuriaoto/job.032881/molpro.Hofcc6mIIt
 Wavefunction directory         : /scr/yuriaoto/job.032881/
 Main file repository           : /scr/yuriaoto/job.032881/molpro.Hofcc6mIIt/

 id        : yuriaoto

 Nodes             nprocs
 t-rex.ufabc.int.br    1

 Using customized tuning parameters: mindgm=8; mindgv=16; mindgc=1; mindgr=1; noblas=0; minvec=7
 default implementation of scratch files=df  


 Variables initialized (933), CPU time= 0.00 sec
 ***,
 memory,40,m
 gthresh,thrprint=0,printci=0.0
 file,3,wfu.dat,old
 
 {ccsd,CC_NORM_MAX=25.0,maxit=100
 thresh,printci=0.0,ENERGY=1.0E-10,COEFF=1.0E-12
 print,ref=1
 core,0
 wf,4,1,0;
 }
 
 Commands  initialized (760), CPU time= 0.01 sec, 617 directives.
 Default parameters read. Elapsed time= 0.10 sec

 Checking input...
 Passed
1


                                         ***  PROGRAM SYSTEM MOLPRO  ***
                                       Copyright, TTI GmbH Stuttgart, 2015
                                    Version 2019.2 linked Abr  7 2019 15:10:35


 **********************************************************************************************************************************
 LABEL *                                                                                 
  64 bit serial version                                                                  DATE: 25-Feb-21          TIME: 17:59:45  
 **********************************************************************************************************************************

 SHA1:             3a8a58c585c929645742fb5a1b7541a4ad1da699
 **********************************************************************************************************************************

 THRESHOLDS:

 ZERO    =  1.00D-12  ONEINT  =  1.00D-12  TWOINT  =  1.00D-11  PREFAC  =  1.00D-14  XXXXXX  =  1.00D-09  EORDER  =  1.00D-04
 ENERGY  =  0.00D+00  ETEST   =  0.00D+00  EDENS   =  0.00D+00  THRDEDEF=  1.00D-06  GRADIENT=  1.00D-02  STEP    =  1.00D-03
 ORBITAL =  1.00D-05  CIVEC   =  1.00D-05  COEFF   =  1.00D-04  PRINTCI =  0.00D+00  PUNCHCI =  9.90D+01  OPTGRAD =  3.00D-04
 OPTENERG=  1.00D-06  OPTSTEP =  3.00D-04  THRGRAD =  1.00D-10  COMPRESS=  1.00D-11  VARMIN  =  1.00D-07  VARMAX  =  1.00D-03
 THRDOUB =  0.00D+00  THRDIV  =  1.00D-05  THRRED  =  1.00D-07  THRPSP  =  1.00D+00  THRDC   =  1.00D-10  THRCS   =  1.00D-10
 THRNRM  =  1.00D-08  THREQ   =  0.00D+00  THRDE   =  1.00D+00  THRREF  =  1.00D-05  SPARFAC =  1.00D+00  THRDLP  =  1.00D-07
 THRDIA  =  1.00D-10  THRDLS  =  1.00D-07  THRGPS  =  0.00D+00  THRKEX  =  0.00D+00  THRDIS  =  2.00D-01  THRVAR  =  1.00D-10
 THRLOC  =  1.00D-06  THRGAP  =  1.00D-06  THRLOCT = -1.00D+00  THRGAPT = -1.00D+00  THRORB  =  1.00D-06  THRMLTP =  0.00D+00
 THRCPQCI=  1.00D-10  KEXTA   =  0.00D+00  THRCOARS=  0.00D+00  SYMTOL  =  1.00D-06  GRADTOL =  1.00D-06  THROVL  =  1.00D-08
 THRORTH =  1.00D-08  GRID    =  1.00D-06  GRIDMAX =  1.00D-03  DTMAX   =  0.00D+00  THROCCDE=  1.00D-01  THROCCDE=  1.00D-01
 THRPRINT=  0.00D+00


 Variable memory set to   40000000 words,  buffer space 



 Permanent file  3  wfu.dat  assigned.  Implementation=df    Size= 14.07 MB


 PROGRAM * RESTART 


 Reading variables from file 3

 _FNUC           =      0.00000000
 _BASIS          =    CC-PVDZ
 _NELEC          =      4.00000000
 _PROGRAM        =    RHF-SCF
 _DMX_SCF        =      0.00000000
 _DMY_SCF        =      0.00000000
 _DMZ_SCF        =      0.00000000
 _HOMO           =      2.10000000
 _EHOMO          =     -0.30903857
 _LUMO           =      1.20000000
 _ELUMO          =      0.05825876
 _ENERGY         =    -14.57233763
 _ENERGY_METHOD  =    RHF
 _ENERGY_BASIS   =    cc-pVDZ
 _ENUC           =      0.00000000
 _IPROC_MPP      =      0.00000000
 _IPROC_MPPX     =      0.00000000
 _ORBITAL        =   2100.30000000
 _STATUS         =      1.00000000
 _LASTORB        =    RHF
 _OUTPUT         =    /scr/yuriaoto/job.032879/RHF.xml
 _PGROUP         =    D2h 
 _TIME           =    14:43:58

 Geometry written to block  1 of record 700


 **********************************************************************************************************************************
 DATASETS  * FILE   NREC   LENGTH (MB)   RECORD NAMES
              3       5       14.76       500      610      700     1000     2100   
                                          VAR    BASINP    GEOM     BASIS     RHF  

 PROGRAMS   *        TOTAL   RESTART
 CPU TIMES  *         0.23      0.02
 REAL TIME  *         0.28 SEC
 DISK USED  *        26.82 MB
 **********************************************************************************************************************************


 Recomputing integrals since basis changed


 Using spherical harmonics

 Library entry BE     S cc-pVDZ              selected for orbital group  1
 Library entry BE     P cc-pVDZ              selected for orbital group  1
 Library entry BE     D cc-pVDZ              selected for orbital group  1


 PROGRAM * SEWARD (Integral evaluation for generally contracted gaussian basis sets)     Author: Roland Lindh, 1990

 Geometry written to block  1 of record 700

 Orientation using atomic masses  
 Molecule type: Atom
 Symmetry elements: X,Y,Z
 Rotational constants:       0.0000000      0.0000000      0.0000000 GHz  (calculated with average atomic masses)

 Point group  D2h 



 ATOMIC COORDINATES

 NR  ATOM    CHARGE       X              Y              Z

   1  BE      4.00    0.000000000    0.000000000    0.000000000

 NUCLEAR CHARGE:                    4
 NUMBER OF PRIMITIVE AOS:          27
 NUMBER OF SYMMETRY AOS:           26
 NUMBER OF CONTRACTIONS:           14   (    5Ag  +    2B3u +    2B2u +    1B1g +    2B1u +    1B2g +    1B3g +    0Au  )
 NUMBER OF CORE ORBITALS:           1   (    1Ag  +    0B3u +    0B2u +    0B1g +    0B1u +    0B2g +    0B3g +    0Au  )
 NUMBER OF VALENCE ORBITALS:        4   (    1Ag  +    1B3u +    1B2u +    0B1g +    1B1u +    0B2g +    0B3g +    0Au  )


 NUCLEAR REPULSION ENERGY    0.00000000

 EXTRA SYMMETRY OF AOS IN SYMMETRY 1:   1 1 1 2 3

 Eigenvalues of metric

         1 0.387E-01 0.100E+01 0.100E+01 0.100E+01 0.196E+01
         2 0.143E+00 0.186E+01
         3 0.143E+00 0.186E+01
         4 0.100E+01
         5 0.143E+00 0.186E+01
         6 0.100E+01
         7 0.100E+01


 Contracted 2-electron integrals neglected if value below      1.0D-11
 AO integral compression algorithm  1   Integral accuracy      1.0D-11

     0.262 MB (compressed) written to integral file (100.0%)


 NUMBER OF SORTED TWO-ELECTRON INTEGRALS:       1083.     BUFFER LENGTH:  32768
 NUMBER OF SEGMENTS:   1  SEGMENT LENGTH:       1083      RECORD LENGTH: 524288

 Memory used in sort:       0.56 MW

 SORT1 READ        1852. AND WROTE         968. INTEGRALS IN      1 RECORDS. CPU TIME:     0.00 SEC, REAL TIME:     0.01 SEC
 SORT2 READ         968. AND WROTE        1083. INTEGRALS IN      1 RECORDS. CPU TIME:     0.01 SEC, REAL TIME:     0.00 SEC

 FILE SIZES:   FILE 1:    30.2 MBYTE,  FILE 4:     4.2 MBYTE,   TOTAL:     34.4 MBYTE

 OPERATOR DM      FOR CENTER  0  COORDINATES:    0.000000    0.000000    0.000000


 **********************************************************************************************************************************
 DATASETS  * FILE   NREC   LENGTH (MB)   RECORD NAMES
              1      19       29.94       500      700      610      900      950      970     1000      129      960     1100   
                                          VAR     GEOM    BASINP   SYMINP    ZMAT    AOBASIS   BASIS     P2S    ABASIS      S 
                                         1400     1410     1200     1210     1080     1600     1650     1300     1700   
                                           T        V       H0       H01     AOSYM     SMH    MOLCAS    ERIS     OPER   

              3       5       14.76       500      610      700     1000     2100   
                                          VAR    BASINP    GEOM     BASIS     RHF  

 PROGRAMS   *        TOTAL       INT   RESTART
 CPU TIMES  *         0.40      0.16      0.02
 REAL TIME  *         0.61 SEC
 DISK USED  *        49.39 MB
 **********************************************************************************************************************************


 PROGRAM * CCSD (Closed-shell coupled cluster)     Authors: C. Hampel, H.-J. Werner, 1991, M. Deegan, P.J. Knowles, 1992


 Input parameters for THRESH:

 ENERGY   =    1.00D-10
 COEFF    =    1.00D-12
 PRINTCI  =    0.000000
 THRPRINT =    0.000000

 Convergence thresholds:  THRVAR = 1.00D-24  THRDEN = 1.00D-10

 Number of closed-shell orbitals:   2 (   2   0   0   0   0   0   0 )
 Number of external orbitals:      12 (   3   2   2   1   2   1   1 )

 Molecular orbitals read from record     2100.3  Type=RHF/CANONICAL (state 1.1)

 Number of N-1 electron functions:               2
 Number of N-2 electron functions:               3
 Number of singly external CSFs:                 6
 Number of doubly external CSFs:                60
 Total number of CSFs:                          67

 Length of J-op  integral file:               0.00 MB
 Length of K-op  integral file:               0.03 MB
 Length of 3-ext integral record:             0.00 MB

 Integral transformation finished. Total CPU:   0.01 sec, npass=  1  Memory used:   0.07 MW

 Reference energy:                    -14.57233763

 MP2 singlet pair energy:              -0.02626694
 MP2 triplet pair energy:              -0.00006423
 MP2 correlation energy:               -0.02633117
 MP2 total energy:                    -14.59866880

 SCS-MP2 correlation energy:           -0.03156029   (PS=  1.200000  PT=  0.333333)
 SCS-MP2 total energy:                -14.60389792

 ITER.      SQ.NORM     CORR.ENERGY   TOTAL ENERGY   ENERGY CHANGE        DEN1      VAR(S)    VAR(P)  DIIS     TIME  TIME/IT
   1      1.04898075    -0.03945257   -14.61179020    -0.01312140    -0.00756766  0.12D-03  0.35D-02  1  1     0.02     0.01
   2      1.09076521    -0.04520826   -14.61754589    -0.00575570    -0.00951632  0.21D-04  0.21D-03  2  2     0.02     0.01
   3      1.10106748    -0.04490681   -14.61724445     0.00030145    -0.00144618  0.66D-06  0.26D-05  3  3     0.03     0.00
   4      1.10207068    -0.04502458   -14.61736221    -0.00011777    -0.00014077  0.20D-06  0.42D-06  4  4     0.03     0.00
   5      1.10232113    -0.04504121   -14.61737884    -0.00001663    -0.00003421  0.27D-08  0.20D-07  5  5     0.03     0.00
   6      1.10228726    -0.04502859   -14.61736622     0.00001262     0.00000806  0.61D-09  0.14D-08  6  6     0.03     0.00
   7      1.10230873    -0.04503150   -14.61736913    -0.00000291    -0.00000340  0.43D-10  0.75D-10  6  1     0.03     0.00
   8      1.10230663    -0.04503119   -14.61736882     0.00000031     0.00000040  0.24D-11  0.33D-11  6  3     0.04     0.00
   9      1.10230682    -0.04503125   -14.61736888    -0.00000005    -0.00000003  0.10D-14  0.11D-12  6  2     0.04     0.00
  10      1.10230668    -0.04503125   -14.61736888    -0.00000001     0.00000003  0.15D-14  0.29D-14  6  4     0.04     0.00
  11      1.10230670    -0.04503125   -14.61736888     0.00000000    -0.00000000  0.14D-15  0.74D-17  6  5     0.04     0.00
  12      1.10230670    -0.04503125   -14.61736888     0.00000000    -0.00000000  0.59D-17  0.43D-18  6  6     0.05     0.00
  13      1.10230670    -0.04503125   -14.61736888     0.00000000    -0.00000000  0.11D-18  0.19D-19  6  1     0.05     0.00
  14      1.10230670    -0.04503125   -14.61736888     0.00000000    -0.00000000  0.41D-21  0.11D-20  6  2     0.05     0.00
  15      1.10230670    -0.04503125   -14.61736888    -0.00000000     0.00000000  0.29D-23  0.17D-21  6  3     0.05     0.00
  16      1.10230670    -0.04503125   -14.61736888     0.00000000    -0.00000000  0.37D-23  0.95D-23  6  4     0.05     0.00
  17      1.10230670    -0.04503125   -14.61736888     0.00000000    -0.00000000  0.39D-25  0.19D-24  6  5     0.06     0.00

 Norm of t1 vector:      0.03264239      S-energy:    -0.00000000      T1 diagnostic:  0.01154083
                                                                       D1 diagnostic:  0.02308165

 Singles amplitudes (print threshold =  0.000E+00):

         I         SYM. A    A   T(IA)

         1         1         1     -0.00026924
         1         1         2      0.00000000
         1         1         3     -0.00000000
         2         1         1     -0.02308008
         2         1         2      0.00000000
         2         1         3     -0.00000000

 Doubles amplitudes (print threshold =  0.000E+00):

         I         J         SYM. A    SYM. B    A         B      T(IJ, AB)

         1         1         1         1         1         1     -0.00131255
         1         1         1         1         1         2     -0.00000000
         1         1         1         1         1         3      0.00000000
         1         1         1         1         2         1     -0.00000000
         1         1         1         1         2         2     -0.00001239
         1         1         1         1         2         3     -0.00000000
         1         1         1         1         3         1      0.00000000
         1         1         1         1         3         2     -0.00000000
         1         1         1         1         3         3     -0.00001239
         1         1         2         2         1         1      0.00003992
         1         1         2         2         1         2     -0.00061497
         1         1         2         2         2         1     -0.00061497
         1         1         2         2         2         2     -0.00190564
         1         1         3         3         1         1      0.00003992
         1         1         3         3         1         2     -0.00061497
         1         1         3         3         2         1     -0.00061497
         1         1         3         3         2         2     -0.00190564
         1         1         4         4         1         1     -0.00001239
         1         1         5         5         1         1      0.00003992
         1         1         5         5         1         2     -0.00061497
         1         1         5         5         2         1     -0.00061497
         1         1         5         5         2         2     -0.00190564
         1         1         6         6         1         1     -0.00001239
         1         1         7         7         1         1     -0.00001239
         2         1         1         1         1         1      0.00071296
         2         1         1         1         1         2     -0.00000000
         2         1         1         1         1         3      0.00000000
         2         1         1         1         2         1     -0.00000000
         2         1         1         1         2         2     -0.00028655
         2         1         1         1         2         3      0.00000000
         2         1         1         1         3         1      0.00000000
         2         1         1         1         3         2      0.00000000
         2         1         1         1         3         3     -0.00028655
         2         1         2         2         1         1     -0.00096250
         2         1         2         2         1         2     -0.00193088
         2         1         2         2         2         1     -0.00115810
         2         1         2         2         2         2     -0.00277084
         2         1         3         3         1         1     -0.00096250
         2         1         3         3         1         2     -0.00193088
         2         1         3         3         2         1     -0.00115810
         2         1         3         3         2         2     -0.00277084
         2         1         4         4         1         1     -0.00028655
         2         1         5         5         1         1     -0.00096250
         2         1         5         5         1         2     -0.00193088
         2         1         5         5         2         1     -0.00115810
         2         1         5         5         2         2     -0.00277084
         2         1         6         6         1         1     -0.00028655
         2         1         7         7         1         1     -0.00028655
         2         2         1         1         1         1     -0.03896736
         2         2         1         1         1         2     -0.00000000
         2         2         1         1         1         3      0.00000000
         2         2         1         1         2         1     -0.00000000
         2         2         1         1         2         2     -0.00864589
         2         2         1         1         2         3      0.00000000
         2         2         1         1         3         1      0.00000000
         2         2         1         1         3         2      0.00000000
         2         2         1         1         3         3     -0.00864589
         2         2         2         2         1         1     -0.14928179
         2         2         2         2         1         2     -0.06939799
         2         2         2         2         2         1     -0.06939799
         2         2         2         2         2         2     -0.03433259
         2         2         3         3         1         1     -0.14928179
         2         2         3         3         1         2     -0.06939799
         2         2         3         3         2         1     -0.06939799
         2         2         3         3         2         2     -0.03433259
         2         2         4         4         1         1     -0.00864589
         2         2         5         5         1         1     -0.14928179
         2         2         5         5         1         2     -0.06939799
         2         2         5         5         2         1     -0.06939799
         2         2         5         5         2         2     -0.03433259
         2         2         6         6         1         1     -0.00864589
         2         2         7         7         1         1     -0.00864589


 RESULTS
 =======

  Reference energy                    -14.572337630917

  Correlated core orbitals:             1.1
  Orbital energies:                    -4.7323

  CCSD core-core energy                -0.000165412827
  CCSD core-valence energy             -0.000507879384
  CCSD valence correlation energy      -0.044357961122

  CCSD singlet pair energy             -0.044987878131
  CCSD triplet pair energy             -0.000043374305
  CCSD correlation energy              -0.045031253333

 !CCSD total energy                   -14.617368884251

 Timing summary (sec):

 STEP                 CPU(USER)    SYS     CPU(TOT)    WALL
 Transformation          0.01      0.00      0.01      0.01
 CCSD iterations         0.05      0.02      0.07      0.08

 Program statistics:

 Available memory in ccsd:                39999184
 Min. memory needed in ccsd:                   908
 Max. memory used in ccsd:                     912
 Max. memory used in cckext:                 33460 (17 integral passes)



 **********************************************************************************************************************************
 DATASETS  * FILE   NREC   LENGTH (MB)   RECORD NAMES
              1      20       29.95       500      700      610      900      950      970     1000      129      960     1100   
                                          VAR     GEOM    BASINP   SYMINP    ZMAT    AOBASIS   BASIS     P2S    ABASIS      S 
                                         1400     1410     1200     1210     1080     1600     1650     1300     1700     1380   
                                           T        V       H0       H01     AOSYM     SMH    MOLCAS    ERIS     OPER     JKOP   

              3       5       14.76       500      610      700     1000     2100   
                                          VAR    BASINP    GEOM     BASIS     RHF  

 PROGRAMS   *        TOTAL      CCSD       INT   RESTART
 CPU TIMES  *         0.52      0.12      0.16      0.02
 REAL TIME  *         0.75 SEC
 DISK USED  *        49.39 MB
 **********************************************************************************************************************************
 Molecular orbitals read from record     2100.3  Type=RHF/CANONICAL (state 1.1)
 Occupation numbers read from record     2100.3  Type=RHF/RHF (state 1.1)
 Orbital energies read from record       2100.3  Type=RHF/CANONICAL (state 1.1)
 Redundancy group numbers read from rec  2100.3  Type=RHF/RHF (state 1.1)

 CCSD/cc-pVDZ energy=    -14.617368884251

            CCSD
    -14.61736888
 **********************************************************************************************************************************
 Molpro calculation terminated
