
 Primary working directories    : /scr/yuriaoto/job.023688/molpro.s2JMfIdIzN
 Secondary working directories  : /scr/yuriaoto/job.023688/molpro.s2JMfIdIzN
 Wavefunction directory         : /scr/yuriaoto/job.023688/
 Main file repository           : /scr/yuriaoto/job.023688/molpro.s2JMfIdIzN/

 id        : yuriaoto

 Nodes             nprocs
 t-rex.ufabc.int.br    1

 Using customized tuning parameters: mindgm=8; mindgv=16; mindgc=1; mindgr=1; noblas=0; minvec=7
 default implementation of scratch files=df  


 Variables initialized (933), CPU time= 0.00 sec
 ***,
 memory,40,m
 gprint,orbital,basis,civector
 gthresh,thrprint=0,printci=0.0
 file,3,wfu.dat,old
 
 {ccsd,CC_NORM_MAX=10.0
 nosingle
 thresh,printci=0.0,ENERGY=1.0E-10,COEFF=1.0E-12
 print,ref=1
 core,0
 wf,6,1,0;
 }
 
 Commands  initialized (760), CPU time= 0.01 sec, 617 directives.
 Default parameters read. Elapsed time= 0.04 sec

 Checking input...
 Passed
1


                                         ***  PROGRAM SYSTEM MOLPRO  ***
                                       Copyright, TTI GmbH Stuttgart, 2015
                                    Version 2019.2 linked Abr  7 2019 15:10:35


 **********************************************************************************************************************************
 LABEL *                                                                                 
  64 bit serial version                                                                  DATE: 05-Jun-20          TIME: 23:32:27  
 **********************************************************************************************************************************

 SHA1:             3a8a58c585c929645742fb5a1b7541a4ad1da699
 **********************************************************************************************************************************


 THRESHOLDS:

 ZERO    =  1.00D-12  ONEINT  =  1.00D-12  TWOINT  =  1.00D-11  PREFAC  =  1.00D-14  XXXXXX  =  1.00D-09  EORDER  =  1.00D-04
 ENERGY  =  0.00D+00  ETEST   =  0.00D+00  EDENS   =  0.00D+00  THRDEDEF=  1.00D-06  GRADIENT=  1.00D-02  STEP    =  1.00D-03
 ORBITAL =  1.00D-05  CIVEC   =  1.00D-05  COEFF   =  1.00D-04  PRINTCI =  0.00D+00  PUNCHCI =  9.90D+01  OPTGRAD =  3.00D-04
 OPTENERG=  1.00D-06  OPTSTEP =  3.00D-04  THRGRAD =  1.00D-10  COMPRESS=  1.00D-11  VARMIN  =  1.00D-07  VARMAX  =  1.00D-03
 THRDOUB =  0.00D+00  THRDIV  =  1.00D-05  THRRED  =  1.00D-07  THRPSP  =  1.00D+00  THRDC   =  1.00D-10  THRCS   =  1.00D-10
 THRNRM  =  1.00D-08  THREQ   =  0.00D+00  THRDE   =  1.00D+00  THRREF  =  1.00D-05  SPARFAC =  1.00D+00  THRDLP  =  1.00D-07
 THRDIA  =  1.00D-10  THRDLS  =  1.00D-07  THRGPS  =  0.00D+00  THRKEX  =  0.00D+00  THRDIS  =  2.00D-01  THRVAR  =  1.00D-10
 THRLOC  =  1.00D-06  THRGAP  =  1.00D-06  THRLOCT = -1.00D+00  THRGAPT = -1.00D+00  THRORB  =  1.00D-06  THRMLTP =  0.00D+00
 THRCPQCI=  1.00D-10  KEXTA   =  0.00D+00  THRCOARS=  0.00D+00  SYMTOL  =  1.00D-06  GRADTOL =  1.00D-06  THROVL  =  1.00D-08
 THRORTH =  1.00D-08  GRID    =  1.00D-06  GRIDMAX =  1.00D-03  DTMAX   =  0.00D+00  THROCCDE=  1.00D-01  THROCCDE=  1.00D-01
 THRPRINT=  0.00D+00


 Variable memory set to   40000000 words,  buffer space 



 Permanent file  3  wfu.dat  assigned.  Implementation=df    Size= 14.10 MB


 PROGRAM * RESTART 


 Reading variables from file 3

 _FNUC           =      0.00000000
 _BASIS          =    CC-PVTZ
 _NELEC          =      6.00000000
 _PROGRAM        =    RHF-SCF
 _DMX_SCF        =      0.00000000
 _DMY_SCF        =      0.00000000
 _DMZ_SCF        =      0.00000000
 _HOMO           =      2.10000000
 _EHOMO          =     -0.18224319
 _LUMO           =      2.50000000
 _ELUMO          =      0.00671464
 _ENERGY         =    -14.87113611
 _ENERGY_METHOD  =    RHF
 _ENERGY_BASIS   =    cc-pVTZ
 _ENUC           =      1.80000000
 _EPS1(1:13)     =     -2.45288987    -0.18224319     0.03854712     0.10701166     0.14531626     0.20132214
                        0.29578721     0.48884990     0.54279194     0.67005534     0.71011391     0.76079758
                        3.02244577
 _EPS2(1:7)      =      0.02716422     0.11604575     0.23979625     0.45701108     0.51087424     0.65663878
                        0.75753063
 _EPS3(1:7)      =      0.02716422     0.11604575     0.23979625     0.45701108     0.51087424     0.65663878
                        0.75753063
 _EPS4(1:3)      =      0.20132214     0.54279194     0.71011391
 _EPS5(1:13)     =     -2.45251703     0.00671464     0.06418201     0.15568446     0.23456666     0.26036282
                        0.39933341     0.51839623     0.69667587     0.74973264     0.77175124     1.01349064
                        3.16580891
 _EPS6(1:7)      =      0.05594314     0.16306709     0.32645184     0.46064971     0.59133328     0.71550490
                        0.96090549
 _EPS7(1:7)      =      0.05594314     0.16306709     0.32645184     0.46064971     0.59133328     0.71550490
                        0.96090549
 _EPS8(1:3)      =      0.26036282     0.69667587     0.77175124
 _IPROC_MPP      =      0.00000000
 _IPROC_MPPX     =      0.00000000
 _ORBITAL        =   2100.30000000
 _STATUS         =      1.00000000
 _DATE           =    10-Feb-20
 _LASTORB        =    RHF
 _OUTPUT         =    /scr/yuriaoto/job.022757/RHF.xml
 _PGROUP         =    D2h 
 _TIME           =    10:55:45
 R               =      5.00000000

 Geometry written to block  1 of record 700


 **********************************************************************************************************************************
 DATASETS  * FILE   NREC   LENGTH (MB)   RECORD NAMES
              3       5       14.79       500      610      700     1000     2100   
                                          VAR    BASINP    GEOM     BASIS     RHF  

 PROGRAMS   *        TOTAL   RESTART
 CPU TIMES  *         0.12      0.01
 REAL TIME  *         0.15 SEC
 DISK USED  *        26.86 MB
 **********************************************************************************************************************************


 Recomputing integrals since basis changed


 Using spherical harmonics

 Library entry LI     S cc-pVTZ              selected for orbital group  1
 Library entry LI     P cc-pVTZ              selected for orbital group  1
 Library entry LI     D cc-pVTZ              selected for orbital group  1
 Library entry LI     F cc-pVTZ              selected for orbital group  1


 PROGRAM * SEWARD (Integral evaluation for generally contracted gaussian basis sets)     Author: Roland Lindh, 1990

 Geometry written to block  1 of record 700

 Orientation using atomic masses  
 Molecule type: Linear
 User-specified symmetry elements: X,Y,Z
 Symmetry elements: X,Y,Z
 Rotational constants:      20.8009354     20.8009354      0.0000000 GHz  (calculated with average atomic masses)

 Point group  D2h 



 ATOMIC COORDINATES

 NR  ATOM    CHARGE       X              Y              Z

   1  LI1     3.00    0.000000000    0.000000000   -2.500000000
   2  LI2     3.00    0.000000000    0.000000000    2.500000000

 Bond lengths in Bohr (Angstrom)

 1-2  5.000000000
     ( 2.645886055)


 BASIS DATA

   Nr Sym  Nuc  Type         Exponents   Contraction coefficients

    1.1 Ag    1  1s        5988.000000     0.000133   -0.000021    0.000000    0.000000
    2.1 Ag    2  1s         898.900000     0.001025   -0.000161    0.000000    0.000000
    3.1 Ag                  205.900000     0.005272   -0.000820    0.000000    0.000000
    4.1 Ag                   59.240000     0.020929   -0.003326    0.000000    0.000000
                             19.870000     0.066340   -0.010519    0.000000    0.000000
                              7.406000     0.165775   -0.028097    0.000000    0.000000
                              2.930000     0.315038   -0.055936    0.000000    0.000000
                              1.189000     0.393523   -0.099237    0.000000    0.000000
                              0.479800     0.190870   -0.112189    0.000000    0.000000
                              0.075090     0.005414    0.567889    1.000000    0.000000
                              0.028320    -0.001328    0.530382    0.000000    1.000000
    5.1 Ag    1  2pz          3.266000     0.008630    0.000000    0.000000
    6.1 Ag    2 -2pz          0.651100     0.047538    0.000000    0.000000
    7.1 Ag                    0.169600     0.209772    0.000000    0.000000
                              0.055780     0.528522    1.000000    0.000000
                              0.020500     0.382744    0.000000    1.000000
    8.1 Ag    1  3d0          0.190000     1.000000
              2  3d0   
    9.1 Ag    1  3d2+         0.190000     1.000000
              2  3d2+  
   10.1 Ag    1  3d0          0.072500     1.000000
              2  3d0   
   11.1 Ag    1  3d2+         0.072500     1.000000
              2  3d2+  
   12.1 Ag    1  4f0          0.127000     1.000000
              2 -4f0   
   13.1 Ag    1  4f2+         0.127000     1.000000
              2 -4f2+  
    1.2 B3u   1  2px          3.266000     0.008630    0.000000    0.000000
    2.2 B3u   2  2px          0.651100     0.047538    0.000000    0.000000
    3.2 B3u                   0.169600     0.209772    0.000000    0.000000
                              0.055780     0.528522    1.000000    0.000000
                              0.020500     0.382744    0.000000    1.000000
    4.2 B3u   1  3d1+         0.190000     1.000000
              2 -3d1+  
    5.2 B3u   1  3d1+         0.072500     1.000000
              2 -3d1+  
    6.2 B3u   1  4f1+         0.127000     1.000000
              2  4f1+  
    7.2 B3u   1  4f3+         0.127000     1.000000
              2  4f3+  
    1.3 B2u   1  2py          3.266000     0.008630    0.000000    0.000000
    2.3 B2u   2  2py          0.651100     0.047538    0.000000    0.000000
    3.3 B2u                   0.169600     0.209772    0.000000    0.000000
                              0.055780     0.528522    1.000000    0.000000
                              0.020500     0.382744    0.000000    1.000000
    4.3 B2u   1  3d1-         0.190000     1.000000
              2 -3d1-  
    5.3 B2u   1  3d1-         0.072500     1.000000
              2 -3d1-  
    6.3 B2u   1  4f1-         0.127000     1.000000
              2  4f1-  
    7.3 B2u   1  4f3-         0.127000     1.000000
              2  4f3-  
    1.4 B1g   1  3d2-         0.190000     1.000000
              2  3d2-  
    2.4 B1g   1  3d2-         0.072500     1.000000
              2  3d2-  
    3.4 B1g   1  4f2-         0.127000     1.000000
              2 -4f2-  
    1.5 B1u   1  1s        5988.000000     0.000133   -0.000021    0.000000    0.000000
    2.5 B1u   2 -1s         898.900000     0.001025   -0.000161    0.000000    0.000000
    3.5 B1u                 205.900000     0.005272   -0.000820    0.000000    0.000000
    4.5 B1u                  59.240000     0.020929   -0.003326    0.000000    0.000000
                             19.870000     0.066340   -0.010519    0.000000    0.000000
                              7.406000     0.165775   -0.028097    0.000000    0.000000
                              2.930000     0.315038   -0.055936    0.000000    0.000000
                              1.189000     0.393523   -0.099237    0.000000    0.000000
                              0.479800     0.190870   -0.112189    0.000000    0.000000
                              0.075090     0.005414    0.567889    1.000000    0.000000
                              0.028320    -0.001328    0.530382    0.000000    1.000000
    5.5 B1u   1  2pz          3.266000     0.008630    0.000000    0.000000
    6.5 B1u   2  2pz          0.651100     0.047538    0.000000    0.000000
    7.5 B1u                   0.169600     0.209772    0.000000    0.000000
                              0.055780     0.528522    1.000000    0.000000
                              0.020500     0.382744    0.000000    1.000000
    8.5 B1u   1  3d0          0.190000     1.000000
              2 -3d0   
    9.5 B1u   1  3d2+         0.190000     1.000000
              2 -3d2+  
   10.5 B1u   1  3d0          0.072500     1.000000
              2 -3d0   
   11.5 B1u   1  3d2+         0.072500     1.000000
              2 -3d2+  
   12.5 B1u   1  4f0          0.127000     1.000000
              2  4f0   
   13.5 B1u   1  4f2+         0.127000     1.000000
              2  4f2+  
    1.6 B2g   1  2px          3.266000     0.008630    0.000000    0.000000
    2.6 B2g   2 -2px          0.651100     0.047538    0.000000    0.000000
    3.6 B2g                   0.169600     0.209772    0.000000    0.000000
                              0.055780     0.528522    1.000000    0.000000
                              0.020500     0.382744    0.000000    1.000000
    4.6 B2g   1  3d1+         0.190000     1.000000
              2  3d1+  
    5.6 B2g   1  3d1+         0.072500     1.000000
              2  3d1+  
    6.6 B2g   1  4f1+         0.127000     1.000000
              2 -4f1+  
    7.6 B2g   1  4f3+         0.127000     1.000000
              2 -4f3+  
    1.7 B3g   1  2py          3.266000     0.008630    0.000000    0.000000
    2.7 B3g   2 -2py          0.651100     0.047538    0.000000    0.000000
    3.7 B3g                   0.169600     0.209772    0.000000    0.000000
                              0.055780     0.528522    1.000000    0.000000
                              0.020500     0.382744    0.000000    1.000000
    4.7 B3g   1  3d1-         0.190000     1.000000
              2  3d1-  
    5.7 B3g   1  3d1-         0.072500     1.000000
              2  3d1-  
    6.7 B3g   1  4f1-         0.127000     1.000000
              2 -4f1-  
    7.7 B3g   1  4f3-         0.127000     1.000000
              2 -4f3-  
    1.8 Au    1  3d2-         0.190000     1.000000
              2 -3d2-  
    2.8 Au    1  3d2-         0.072500     1.000000
              2 -3d2-  
    3.8 Au    1  4f2-         0.127000     1.000000
              2  4f2-  

 NUCLEAR CHARGE:                    6
 NUMBER OF PRIMITIVE AOS:          96
 NUMBER OF SYMMETRY AOS:           86
 NUMBER OF CONTRACTIONS:           60   (   13Ag  +    7B3u +    7B2u +    3B1g +   13B1u +    7B2g +    7B3g +    3Au  )
 NUMBER OF CORE ORBITALS:           2   (    1Ag  +    0B3u +    0B2u +    0B1g +    1B1u +    0B2g +    0B3g +    0Au  )
 NUMBER OF VALENCE ORBITALS:        8   (    2Ag  +    1B3u +    1B2u +    0B1g +    2B1u +    1B2g +    1B3g +    0Au  )


 NUCLEAR REPULSION ENERGY    1.80000000

 EXTRA SYMMETRY OF AOS IN SYMMETRY 1:   1 1 1 1 1 1 1 1 2 1   2 1 2
 EXTRA SYMMETRY OF AOS IN SYMMETRY 2:   1 1 1 1 1 1 2
 EXTRA SYMMETRY OF AOS IN SYMMETRY 3:   1 1 1 1 1 1 2
 EXTRA SYMMETRY OF AOS IN SYMMETRY 5:   1 1 1 1 1 1 1 1 2 1   2 1 2
 EXTRA SYMMETRY OF AOS IN SYMMETRY 6:   1 1 1 1 1 1 2
 EXTRA SYMMETRY OF AOS IN SYMMETRY 7:   1 1 1 1 1 1 2

 Eigenvalues of metric

         1 0.105E-02 0.623E-02 0.554E-01 0.144E+00 0.376E+00 0.389E+00 0.852E+00 0.121E+01
         2 0.163E-01 0.202E+00 0.443E+00 0.996E+00 0.120E+01 0.217E+01 0.466E+01
         3 0.163E-01 0.202E+00 0.443E+00 0.996E+00 0.120E+01 0.217E+01 0.466E+01
         4 0.376E+00 0.121E+01 0.236E+01
         5 0.953E-03 0.131E-02 0.820E-02 0.163E-01 0.171E+00 0.188E+00 0.335E+00 0.399E+00
         6 0.798E-02 0.188E-01 0.958E-01 0.281E+00 0.796E+00 0.128E+01 0.183E+01
         7 0.798E-02 0.188E-01 0.958E-01 0.281E+00 0.796E+00 0.128E+01 0.183E+01
         8 0.171E+00 0.399E+00 0.149E+01


 Contracted 2-electron integrals neglected if value below      1.0D-11
 AO integral compression algorithm  1   Integral accuracy      1.0D-11

     1.835 MB (compressed) written to integral file ( 55.5%)


 NUMBER OF SORTED TWO-ELECTRON INTEGRALS:     230799.     BUFFER LENGTH:  32768
 NUMBER OF SEGMENTS:   1  SEGMENT LENGTH:     230799      RECORD LENGTH: 524288

 Memory used in sort:       0.79 MW

 SORT1 READ      450560. AND WROTE      192195. INTEGRALS IN      1 RECORDS. CPU TIME:     0.01 SEC, REAL TIME:     0.01 SEC
 SORT2 READ      192195. AND WROTE      230799. INTEGRALS IN      7 RECORDS. CPU TIME:     0.05 SEC, REAL TIME:     0.05 SEC

 FILE SIZES:   FILE 1:    31.9 MBYTE,  FILE 4:     4.2 MBYTE,   TOTAL:     36.1 MBYTE

 OPERATOR DM      FOR CENTER  0  COORDINATES:    0.000000    0.000000    0.000000


 **********************************************************************************************************************************
 DATASETS  * FILE   NREC   LENGTH (MB)   RECORD NAMES
              1      19       31.01       500      700      610      900      950      970     1000      129      960     1100   
                                          VAR     GEOM    BASINP   SYMINP    ZMAT    AOBASIS   BASIS     P2S    ABASIS      S 
                                         1400     1410     1200     1210     1080     1600     1650     1300     1700   
                                           T        V       H0       H01     AOSYM     SMH    MOLCAS    ERIS     OPER   

              3       5       14.79       500      610      700     1000     2100   
                                          VAR    BASINP    GEOM     BASIS     RHF  

 PROGRAMS   *        TOTAL       INT   RESTART
 CPU TIMES  *         0.40      0.27      0.01
 REAL TIME  *         0.53 SEC
 DISK USED  *        51.14 MB
 **********************************************************************************************************************************


 PROGRAM * CCSD (Closed-shell coupled cluster)     Authors: C. Hampel, H.-J. Werner, 1991, M. Deegan, P.J. Knowles, 1992


 Input parameters for THRESH:

 ENERGY   =    1.00D-10
 COEFF    =    1.00D-12
 PRINTCI  =    0.000000
 THRPRINT =    0.000000

 Convergence thresholds:  THRVAR = 1.00D-24  THRDEN = 1.00D-10

 Number of closed-shell orbitals:   3 (   2   0   0   0   1   0   0   0 )
 Number of external orbitals:      57 (  11   7   7   3  12   7   7   3 )

 Molecular orbitals read from record     2100.3  Type=RHF/CANONICAL (state 1.1)

 Number of N-1 electron functions:               0
 Number of N-2 electron functions:               6
 Number of singly external CSFs:                 0
 Number of doubly external CSFs:              2239
 Total number of CSFs:                        2240

 Length of J-op  integral file:               0.00 MB
 Length of K-op  integral file:               0.07 MB
 Length of 3-ext integral record:             0.00 MB

 Integral transformation finished. Total CPU:   0.00 sec, npass=  1  Memory used:   0.10 MW

 Reference energy:                    -14.87113611

 MP2 singlet pair energy:              -0.04440448
 MP2 triplet pair energy:              -0.00061015
 MP2 correlation energy:               -0.04501463
 MP2 total energy:                    -14.91615074

 SCS-MP2 correlation energy:           -0.05366502   (PS=  1.200000  PT=  0.333333)
 SCS-MP2 total energy:                -14.92480113

 ITER.      SQ.NORM     CORR.ENERGY   TOTAL ENERGY   ENERGY CHANGE        DEN1      VAR(S)    VAR(P)  DIIS     TIME  TIME/IT
   1      1.05337626    -0.05606680   -14.92720292    -0.01105218    -0.00692996  0.00D+00  0.25D-02  1  1     0.01     0.01
   2      1.07205147    -0.05857177   -14.92970789    -0.00250497    -0.00391032  0.00D+00  0.81D-03  2  2     0.01     0.00
   3      1.09711467    -0.05949778   -14.93063390    -0.00092601    -0.00312231  0.00D+00  0.61D-04  3  3     0.02     0.01
   4      1.10207373    -0.05949190   -14.93062801     0.00000588    -0.00040978  0.00D+00  0.13D-04  4  4     0.03     0.01
   5      1.10382032    -0.05950790   -14.93064401    -0.00001600    -0.00008056  0.00D+00  0.18D-05  5  5     0.03     0.00
   6      1.10436613    -0.05951375   -14.93064986    -0.00000585    -0.00003627  0.00D+00  0.36D-06  6  6     0.03     0.00
   7      1.10450323    -0.05951066   -14.93064677     0.00000309    -0.00000853  0.00D+00  0.34D-07  6  1     0.04     0.00
   8      1.10450585    -0.05951062   -14.93064673     0.00000004     0.00000114  0.00D+00  0.57D-08  6  2     0.04     0.00
   9      1.10450505    -0.05951100   -14.93064711    -0.00000038     0.00000034  0.00D+00  0.67D-09  6  3     0.04     0.00
  10      1.10450470    -0.05951098   -14.93064709     0.00000002    -0.00000006  0.00D+00  0.11D-09  6  4     0.05     0.00
  11      1.10450537    -0.05951095   -14.93064706     0.00000003    -0.00000013  0.00D+00  0.12D-10  6  5     0.05     0.00
  12      1.10450509    -0.05951095   -14.93064706    -0.00000000     0.00000002  0.00D+00  0.31D-11  6  6     0.05     0.00
  13      1.10450470    -0.05951095   -14.93064706    -0.00000000     0.00000004  0.00D+00  0.92D-12  6  1     0.06     0.00
  14      1.10450428    -0.05951096   -14.93064707    -0.00000000     0.00000003  0.00D+00  0.19D-12  6  3     0.06     0.00
  15      1.10450400    -0.05951096   -14.93064707    -0.00000000     0.00000002  0.00D+00  0.15D-13  6  2     0.06     0.00
  16      1.10450395    -0.05951096   -14.93064707    -0.00000000     0.00000000  0.00D+00  0.37D-14  6  4     0.07     0.00
  17      1.10450394    -0.05951096   -14.93064707    -0.00000000     0.00000000  0.00D+00  0.53D-15  6  5     0.07     0.00
  18      1.10450394    -0.05951096   -14.93064707     0.00000000    -0.00000000  0.00D+00  0.90D-16  6  6     0.07     0.00
  19      1.10450394    -0.05951096   -14.93064707     0.00000000    -0.00000000  0.00D+00  0.18D-16  6  4     0.08     0.00
  20      1.10450394    -0.05951096   -14.93064707     0.00000000    -0.00000000  0.00D+00  0.37D-17  6  3     0.08     0.00
  21      1.10450394    -0.05951096   -14.93064707     0.00000000    -0.00000000  0.00D+00  0.61D-18  6  1     0.09     0.00
  22      1.10450395    -0.05951096   -14.93064707     0.00000000    -0.00000000  0.00D+00  0.13D-18  6  2     0.09     0.00
  23      1.10450395    -0.05951096   -14.93064707     0.00000000    -0.00000000  0.00D+00  0.27D-19  6  5     0.09     0.00
  24      1.10450395    -0.05951096   -14.93064707    -0.00000000     0.00000000  0.00D+00  0.79D-20  6  6     0.10     0.00
  25      1.10450395    -0.05951096   -14.93064707    -0.00000000     0.00000000  0.00D+00  0.20D-20  6  2     0.10     0.00
  26      1.10450395    -0.05951096   -14.93064707    -0.00000000     0.00000000  0.00D+00  0.18D-21  6  4     0.11     0.00
  27      1.10450395    -0.05951096   -14.93064707    -0.00000000     0.00000000  0.00D+00  0.22D-22  6  3     0.11     0.00
  28      1.10450395    -0.05951096   -14.93064707     0.00000000     0.00000000  0.00D+00  0.73D-23  6  1     0.11     0.00
  29      1.10450395    -0.05951096   -14.93064707    -0.00000000     0.00000000  0.00D+00  0.22D-23  6  5     0.12     0.00
  30      1.10450395    -0.05951096   -14.93064707    -0.00000000     0.00000000  0.00D+00  0.57D-24  6  6     0.12     0.00


 Doubles amplitudes (print threshold =  0.000E+00):

         I         J         SYM. A    SYM. B    A         B      T(IJ, AB)

         1         1         1         1         1         1     -0.00009534
         1         1         1         1         1         2      0.00019415
         1         1         1         1         1         3     -0.00006442
         1         1         1         1         1         4     -0.00000000
         1         1         1         1         1         5     -0.00018060
         1         1         1         1         1         6     -0.00037169
         1         1         1         1         1         7      0.00000000
         1         1         1         1         1         8      0.00014144
         1         1         1         1         1         9      0.00000000
         1         1         1         1         1        10      0.00005358
         1         1         1         1         1        11      0.00074619
         1         1         1         1         2         1      0.00019415
         1         1         1         1         2         2     -0.00040386
         1         1         1         1         2         3      0.00028199
         1         1         1         1         2         4      0.00000000
         1         1         1         1         2         5      0.00029911
         1         1         1         1         2         6      0.00056576
         1         1         1         1         2         7     -0.00000000
         1         1         1         1         2         8      0.00007629
         1         1         1         1         2         9     -0.00000000
         1         1         1         1         2        10     -0.00000840
         1         1         1         1         2        11     -0.00189335
         1         1         1         1         3         1     -0.00006442
         1         1         1         1         3         2      0.00028199
         1         1         1         1         3         3     -0.00084935
         1         1         1         1         3         4     -0.00000000
         1         1         1         1         3         5      0.00006222
         1         1         1         1         3         6      0.00028066
         1         1         1         1         3         7      0.00000000
         1         1         1         1         3         8     -0.00149106
         1         1         1         1         3         9      0.00000000
         1         1         1         1         3        10     -0.00034867
         1         1         1         1         3        11      0.00301889
         1         1         1         1         4         1     -0.00000000
         1         1         1         1         4         2      0.00000000
         1         1         1         1         4         3     -0.00000000
         1         1         1         1         4         4      0.00000949
         1         1         1         1         4         5     -0.00000000
         1         1         1         1         4         6     -0.00000000
         1         1         1         1         4         7      0.00000289
         1         1         1         1         4         8      0.00000000
         1         1         1         1         4         9     -0.00000624
         1         1         1         1         4        10      0.00000000
         1         1         1         1         4        11     -0.00000000
         1         1         1         1         5         1     -0.00018060
         1         1         1         1         5         2      0.00029911
         1         1         1         1         5         3      0.00006222
         1         1         1         1         5         4     -0.00000000
         1         1         1         1         5         5     -0.00030628
         1         1         1         1         5         6     -0.00062099
         1         1         1         1         5         7     -0.00000000
         1         1         1         1         5         8      0.00048490
         1         1         1         1         5         9      0.00000000
         1         1         1         1         5        10      0.00012698
         1         1         1         1         5        11      0.00059611
         1         1         1         1         6         1     -0.00037169
         1         1         1         1         6         2      0.00056576
         1         1         1         1         6         3      0.00028066
         1         1         1         1         6         4     -0.00000000
         1         1         1         1         6         5     -0.00062099
         1         1         1         1         6         6     -0.00125975
         1         1         1         1         6         7      0.00000000
         1         1         1         1         6         8      0.00126510
         1         1         1         1         6         9      0.00000000
         1         1         1         1         6        10      0.00034151
         1         1         1         1         6        11      0.00055294
         1         1         1         1         7         1      0.00000000
         1         1         1         1         7         2     -0.00000000
         1         1         1         1         7         3      0.00000000
         1         1         1         1         7         4      0.00000289
         1         1         1         1         7         5     -0.00000000
         1         1         1         1         7         6      0.00000000
         1         1         1         1         7         7      0.00000592
         1         1         1         1         7         8      0.00000000
         1         1         1         1         7         9     -0.00000671
         1         1         1         1         7        10     -0.00000000
         1         1         1         1         7        11      0.00000000
         1         1         1         1         8         1      0.00014144
         1         1         1         1         8         2      0.00007629
         1         1         1         1         8         3     -0.00149106
         1         1         1         1         8         4      0.00000000
         1         1         1         1         8         5      0.00048490
         1         1         1         1         8         6      0.00126510
         1         1         1         1         8         7      0.00000000
         1         1         1         1         8         8     -0.00321155
         1         1         1         1         8         9     -0.00000000
         1         1         1         1         8        10     -0.00078231
         1         1         1         1         8        11      0.00453930
         1         1         1         1         9         1      0.00000000
         1         1         1         1         9         2     -0.00000000
         1         1         1         1         9         3      0.00000000
         1         1         1         1         9         4     -0.00000624
         1         1         1         1         9         5      0.00000000
         1         1         1         1         9         6      0.00000000
         1         1         1         1         9         7     -0.00000671
         1         1         1         1         9         8     -0.00000000
         1         1         1         1         9         9     -0.00004797
         1         1         1         1         9        10     -0.00000000
         1         1         1         1         9        11      0.00000000
         1         1         1         1        10         1      0.00005358
         1         1         1         1        10         2     -0.00000840
         1         1         1         1        10         3     -0.00034867
         1         1         1         1        10         4      0.00000000
         1         1         1         1        10         5      0.00012698
         1         1         1         1        10         6      0.00034151
         1         1         1         1        10         7     -0.00000000
         1         1         1         1        10         8     -0.00078231
         1         1         1         1        10         9     -0.00000000
         1         1         1         1        10        10     -0.00027091
         1         1         1         1        10        11      0.00100161
         1         1         1         1        11         1      0.00074619
         1         1         1         1        11         2     -0.00189335
         1         1         1         1        11         3      0.00301889
         1         1         1         1        11         4     -0.00000000
         1         1         1         1        11         5      0.00059611
         1         1         1         1        11         6      0.00055294
         1         1         1         1        11         7      0.00000000
         1         1         1         1        11         8      0.00453930
         1         1         1         1        11         9      0.00000000
         1         1         1         1        11        10      0.00100161
         1         1         1         1        11        11     -0.01573122
         1         1         2         2         1         1      0.00003235
         1         1         2         2         1         2     -0.00003110
         1         1         2         2         1         3      0.00000907
         1         1         2         2         1         4     -0.00040453
         1         1         2         2         1         5      0.00000000
         1         1         2         2         1         6      0.00014635
         1         1         2         2         1         7      0.00015516
         1         1         2         2         2         1     -0.00003110
         1         1         2         2         2         2     -0.00010695
         1         1         2         2         2         3     -0.00000958
         1         1         2         2         2         4     -0.00061085
         1         1         2         2         2         5      0.00000000
         1         1         2         2         2         6      0.00021028
         1         1         2         2         2         7      0.00023106
         1         1         2         2         3         1      0.00000907
         1         1         2         2         3         2     -0.00000958
         1         1         2         2         3         3      0.00000818
         1         1         2         2         3         4     -0.00012395
         1         1         2         2         3         5      0.00000000
         1         1         2         2         3         6      0.00003907
         1         1         2         2         3         7      0.00005446
         1         1         2         2         4         1     -0.00040453
         1         1         2         2         4         2     -0.00061085
         1         1         2         2         4         3     -0.00012395
         1         1         2         2         4         4     -0.00207139
         1         1         2         2         4         5      0.00000000
         1         1         2         2         4         6      0.00068457
         1         1         2         2         4         7      0.00077970
         1         1         2         2         5         1      0.00000000
         1         1         2         2         5         2      0.00000000
         1         1         2         2         5         3      0.00000000
         1         1         2         2         5         4      0.00000000
         1         1         2         2         5         5      0.00000501
         1         1         2         2         5         6     -0.00000000
         1         1         2         2         5         7     -0.00000000
         1         1         2         2         6         1      0.00014635
         1         1         2         2         6         2      0.00021028
         1         1         2         2         6         3      0.00003907
         1         1         2         2         6         4      0.00068457
         1         1         2         2         6         5     -0.00000000
         1         1         2         2         6         6     -0.00026173
         1         1         2         2         6         7     -0.00023135
         1         1         2         2         7         1      0.00015516
         1         1         2         2         7         2      0.00023106
         1         1         2         2         7         3      0.00005446
         1         1         2         2         7         4      0.00077970
         1         1         2         2         7         5     -0.00000000
         1         1         2         2         7         6     -0.00023135
         1         1         2         2         7         7     -0.00030626
         1         1         3         3         1         1      0.00003235
         1         1         3         3         1         2     -0.00003110
         1         1         3         3         1         3      0.00000907
         1         1         3         3         1         4     -0.00040453
         1         1         3         3         1         5     -0.00000000
         1         1         3         3         1         6      0.00014635
         1         1         3         3         1         7      0.00015516
         1         1         3         3         2         1     -0.00003110
         1         1         3         3         2         2     -0.00010695
         1         1         3         3         2         3     -0.00000958
         1         1         3         3         2         4     -0.00061085
         1         1         3         3         2         5     -0.00000000
         1         1         3         3         2         6      0.00021028
         1         1         3         3         2         7      0.00023106
         1         1         3         3         3         1      0.00000907
         1         1         3         3         3         2     -0.00000958
         1         1         3         3         3         3      0.00000818
         1         1         3         3         3         4     -0.00012395
         1         1         3         3         3         5     -0.00000000
         1         1         3         3         3         6      0.00003907
         1         1         3         3         3         7      0.00005446
         1         1         3         3         4         1     -0.00040453
         1         1         3         3         4         2     -0.00061085
         1         1         3         3         4         3     -0.00012395
         1         1         3         3         4         4     -0.00207139
         1         1         3         3         4         5     -0.00000000
         1         1         3         3         4         6      0.00068457
         1         1         3         3         4         7      0.00077970
         1         1         3         3         5         1     -0.00000000
         1         1         3         3         5         2     -0.00000000
         1         1         3         3         5         3     -0.00000000
         1         1         3         3         5         4     -0.00000000
         1         1         3         3         5         5      0.00000501
         1         1         3         3         5         6      0.00000000
         1         1         3         3         5         7      0.00000000
         1         1         3         3         6         1      0.00014635
         1         1         3         3         6         2      0.00021028
         1         1         3         3         6         3      0.00003907
         1         1         3         3         6         4      0.00068457
         1         1         3         3         6         5      0.00000000
         1         1         3         3         6         6     -0.00026173
         1         1         3         3         6         7     -0.00023135
         1         1         3         3         7         1      0.00015516
         1         1         3         3         7         2      0.00023106
         1         1         3         3         7         3      0.00005446
         1         1         3         3         7         4      0.00077970
         1         1         3         3         7         5      0.00000000
         1         1         3         3         7         6     -0.00023135
         1         1         3         3         7         7     -0.00030626
         1         1         4         4         1         1      0.00000949
         1         1         4         4         1         2      0.00000289
         1         1         4         4         1         3     -0.00000624
         1         1         4         4         2         1      0.00000289
         1         1         4         4         2         2      0.00000592
         1         1         4         4         2         3     -0.00000671
         1         1         4         4         3         1     -0.00000624
         1         1         4         4         3         2     -0.00000671
         1         1         4         4         3         3     -0.00004797
         1         1         5         5         1         1     -0.00034806
         1         1         5         5         1         2      0.00040053
         1         1         5         5         1         3     -0.00032667
         1         1         5         5         1         4     -0.00053521
         1         1         5         5         1         5      0.00000000
         1         1         5         5         1         6      0.00090689
         1         1         5         5         1         7     -0.00044044
         1         1         5         5         1         8     -0.00000000
         1         1         5         5         1         9      0.00006337
         1         1         5         5         1        10     -0.00000000
         1         1         5         5         1        11      0.00007568
         1         1         5         5         1        12     -0.00225308
         1         1         5         5         2         1      0.00040053
         1         1         5         5         2         2     -0.00044459
         1         1         5         5         2         3      0.00034903
         1         1         5         5         2         4      0.00058787
         1         1         5         5         2         5      0.00000000
         1         1         5         5         2         6     -0.00095185
         1         1         5         5         2         7      0.00050833
         1         1         5         5         2         8     -0.00000000
         1         1         5         5         2         9     -0.00009236
         1         1         5         5         2        10     -0.00000000
         1         1         5         5         2        11     -0.00012584
         1         1         5         5         2        12      0.00240799
         1         1         5         5         3         1     -0.00032667
         1         1         5         5         3         2      0.00034903
         1         1         5         5         3         3     -0.00027654
         1         1         5         5         3         4     -0.00042026
         1         1         5         5         3         5      0.00000000
         1         1         5         5         3         6      0.00074716
         1         1         5         5         3         7     -0.00024971
         1         1         5         5         3         8     -0.00000000
         1         1         5         5         3         9     -0.00002181
         1         1         5         5         3        10     -0.00000000
         1         1         5         5         3        11     -0.00008070
         1         1         5         5         3        12     -0.00175504
         1         1         5         5         4         1     -0.00053521
         1         1         5         5         4         2      0.00058787
         1         1         5         5         4         3     -0.00042026
         1         1         5         5         4         4     -0.00081428
         1         1         5         5         4         5      0.00000000
         1         1         5         5         4         6      0.00111655
         1         1         5         5         4         7     -0.00092691
         1         1         5         5         4         8     -0.00000000
         1         1         5         5         4         9      0.00030228
         1         1         5         5         4        10     -0.00000000
         1         1         5         5         4        11      0.00052687
         1         1         5         5         4        12     -0.00321433
         1         1         5         5         5         1      0.00000000
         1         1         5         5         5         2      0.00000000
         1         1         5         5         5         3      0.00000000
         1         1         5         5         5         4      0.00000000
         1         1         5         5         5         5      0.00000463
         1         1         5         5         5         6      0.00000000
         1         1         5         5         5         7     -0.00000000
         1         1         5         5         5         8      0.00000160
         1         1         5         5         5         9      0.00000000
         1         1         5         5         5        10     -0.00000349
         1         1         5         5         5        11      0.00000000
         1         1         5         5         5        12      0.00000000
         1         1         5         5         6         1      0.00090689
         1         1         5         5         6         2     -0.00095185
         1         1         5         5         6         3      0.00074716
         1         1         5         5         6         4      0.00111655
         1         1         5         5         6         5      0.00000000
         1         1         5         5         6         6     -0.00198510
         1         1         5         5         6         7      0.00061170
         1         1         5         5         6         8     -0.00000000
         1         1         5         5         6         9      0.00009839
         1         1         5         5         6        10     -0.00000000
         1         1         5         5         6        11      0.00030069
         1         1         5         5         6        12      0.00458003
         1         1         5         5         7         1     -0.00044044
         1         1         5         5         7         2      0.00050833
         1         1         5         5         7         3     -0.00024971
         1         1         5         5         7         4     -0.00092691
         1         1         5         5         7         5     -0.00000000
         1         1         5         5         7         6      0.00061170
         1         1         5         5         7         7     -0.00186190
         1         1         5         5         7         8      0.00000000
         1         1         5         5         7         9      0.00099221
         1         1         5         5         7        10      0.00000000
         1         1         5         5         7        11      0.00190054
         1         1         5         5         7        12     -0.00330600
         1         1         5         5         8         1     -0.00000000
         1         1         5         5         8         2     -0.00000000
         1         1         5         5         8         3     -0.00000000
         1         1         5         5         8         4     -0.00000000
         1         1         5         5         8         5      0.00000160
         1         1         5         5         8         6     -0.00000000
         1         1         5         5         8         7      0.00000000
         1         1         5         5         8         8     -0.00000509
         1         1         5         5         8         9     -0.00000000
         1         1         5         5         8        10      0.00001988
         1         1         5         5         8        11     -0.00000000
         1         1         5         5         8        12      0.00000000
         1         1         5         5         9         1      0.00006337
         1         1         5         5         9         2     -0.00009236
         1         1         5         5         9         3     -0.00002181
         1         1         5         5         9         4      0.00030228
         1         1         5         5         9         5      0.00000000
         1         1         5         5         9         6      0.00009839
         1         1         5         5         9         7      0.00099221
         1         1         5         5         9         8     -0.00000000
         1         1         5         5         9         9     -0.00063013
         1         1         5         5         9        10      0.00000000
         1         1         5         5         9        11     -0.00122933
         1         1         5         5         9        12      0.00090274
         1         1         5         5        10         1     -0.00000000
         1         1         5         5        10         2     -0.00000000
         1         1         5         5        10         3     -0.00000000
         1         1         5         5        10         4     -0.00000000
         1         1         5         5        10         5     -0.00000349
         1         1         5         5        10         6     -0.00000000
         1         1         5         5        10         7      0.00000000
         1         1         5         5        10         8      0.00001988
         1         1         5         5        10         9      0.00000000
         1         1         5         5        10        10     -0.00004308
         1         1         5         5        10        11      0.00000000
         1         1         5         5        10        12     -0.00000000
         1         1         5         5        11         1      0.00007568
         1         1         5         5        11         2     -0.00012584
         1         1         5         5        11         3     -0.00008070
         1         1         5         5        11         4      0.00052687
         1         1         5         5        11         5      0.00000000
         1         1         5         5        11         6      0.00030069
         1         1         5         5        11         7      0.00190054
         1         1         5         5        11         8     -0.00000000
         1         1         5         5        11         9     -0.00122933
         1         1         5         5        11        10      0.00000000
         1         1         5         5        11        11     -0.00255958
         1         1         5         5        11        12      0.00153149
         1         1         5         5        12         1     -0.00225308
         1         1         5         5        12         2      0.00240799
         1         1         5         5        12         3     -0.00175504
         1         1         5         5        12         4     -0.00321433
         1         1         5         5        12         5      0.00000000
         1         1         5         5        12         6      0.00458003
         1         1         5         5        12         7     -0.00330600
         1         1         5         5        12         8      0.00000000
         1         1         5         5        12         9      0.00090274
         1         1         5         5        12        10     -0.00000000
         1         1         5         5        12        11      0.00153149
         1         1         5         5        12        12     -0.01540487
         1         1         6         6         1         1     -0.00001967
         1         1         6         6         1         2     -0.00006147
         1         1         6         6         1         3     -0.00001560
         1         1         6         6         1         4     -0.00020759
         1         1         6         6         1         5      0.00000000
         1         1         6         6         1         6     -0.00008732
         1         1         6         6         1         7     -0.00009109
         1         1         6         6         2         1     -0.00006147
         1         1         6         6         2         2     -0.00017930
         1         1         6         6         2         3     -0.00004570
         1         1         6         6         2         4     -0.00059829
         1         1         6         6         2         5      0.00000000
         1         1         6         6         2         6     -0.00024998
         1         1         6         6         2         7     -0.00026577
         1         1         6         6         3         1     -0.00001560
         1         1         6         6         3         2     -0.00004570
         1         1         6         6         3         3     -0.00000822
         1         1         6         6         3         4     -0.00015005
         1         1         6         6         3         5      0.00000000
         1         1         6         6         3         6     -0.00006276
         1         1         6         6         3         7     -0.00007058
         1         1         6         6         4         1     -0.00020759
         1         1         6         6         4         2     -0.00059829
         1         1         6         6         4         3     -0.00015005
         1         1         6         6         4         4     -0.00196749
         1         1         6         6         4         5     -0.00000000
         1         1         6         6         4         6     -0.00082331
         1         1         6         6         4         7     -0.00089578
         1         1         6         6         5         1      0.00000000
         1         1         6         6         5         2      0.00000000
         1         1         6         6         5         3      0.00000000
         1         1         6         6         5         4     -0.00000000
         1         1         6         6         5         5      0.00000371
         1         1         6         6         5         6     -0.00000000
         1         1         6         6         5         7     -0.00000000
         1         1         6         6         6         1     -0.00008732
         1         1         6         6         6         2     -0.00024998
         1         1         6         6         6         3     -0.00006276
         1         1         6         6         6         4     -0.00082331
         1         1         6         6         6         5     -0.00000000
         1         1         6         6         6         6     -0.00035057
         1         1         6         6         6         7     -0.00035272
         1         1         6         6         7         1     -0.00009109
         1         1         6         6         7         2     -0.00026577
         1         1         6         6         7         3     -0.00007058
         1         1         6         6         7         4     -0.00089578
         1         1         6         6         7         5     -0.00000000
         1         1         6         6         7         6     -0.00035272
         1         1         6         6         7         7     -0.00046627
         1         1         7         7         1         1     -0.00001967
         1         1         7         7         1         2     -0.00006147
         1         1         7         7         1         3     -0.00001560
         1         1         7         7         1         4     -0.00020759
         1         1         7         7         1         5     -0.00000000
         1         1         7         7         1         6     -0.00008732
         1         1         7         7         1         7     -0.00009109
         1         1         7         7         2         1     -0.00006147
         1         1         7         7         2         2     -0.00017930
         1         1         7         7         2         3     -0.00004570
         1         1         7         7         2         4     -0.00059829
         1         1         7         7         2         5     -0.00000000
         1         1         7         7         2         6     -0.00024998
         1         1         7         7         2         7     -0.00026577
         1         1         7         7         3         1     -0.00001560
         1         1         7         7         3         2     -0.00004570
         1         1         7         7         3         3     -0.00000822
         1         1         7         7         3         4     -0.00015005
         1         1         7         7         3         5     -0.00000000
         1         1         7         7         3         6     -0.00006276
         1         1         7         7         3         7     -0.00007058
         1         1         7         7         4         1     -0.00020759
         1         1         7         7         4         2     -0.00059829
         1         1         7         7         4         3     -0.00015005
         1         1         7         7         4         4     -0.00196749
         1         1         7         7         4         5      0.00000000
         1         1         7         7         4         6     -0.00082331
         1         1         7         7         4         7     -0.00089578
         1         1         7         7         5         1     -0.00000000
         1         1         7         7         5         2     -0.00000000
         1         1         7         7         5         3     -0.00000000
         1         1         7         7         5         4      0.00000000
         1         1         7         7         5         5      0.00000371
         1         1         7         7         5         6      0.00000000
         1         1         7         7         5         7      0.00000000
         1         1         7         7         6         1     -0.00008732
         1         1         7         7         6         2     -0.00024998
         1         1         7         7         6         3     -0.00006276
         1         1         7         7         6         4     -0.00082331
         1         1         7         7         6         5      0.00000000
         1         1         7         7         6         6     -0.00035057
         1         1         7         7         6         7     -0.00035272
         1         1         7         7         7         1     -0.00009109
         1         1         7         7         7         2     -0.00026577
         1         1         7         7         7         3     -0.00007058
         1         1         7         7         7         4     -0.00089578
         1         1         7         7         7         5      0.00000000
         1         1         7         7         7         6     -0.00035272
         1         1         7         7         7         7     -0.00046627
         1         1         8         8         1         1      0.00000463
         1         1         8         8         1         2      0.00000160
         1         1         8         8         1         3     -0.00000349
         1         1         8         8         2         1      0.00000160
         1         1         8         8         2         2     -0.00000509
         1         1         8         8         2         3      0.00001988
         1         1         8         8         3         1     -0.00000349
         1         1         8         8         3         2      0.00001988
         1         1         8         8         3         3     -0.00004308
         2         1         1         1         1         1     -0.00044194
         2         1         1         1         1         2      0.00062925
         2         1         1         1         1         3      0.00057706
         2         1         1         1         1         4      0.00000000
         2         1         1         1         1         5     -0.00073843
         2         1         1         1         1         6     -0.00109780
         2         1         1         1         1         7     -0.00000000
         2         1         1         1         1         8      0.00101783
         2         1         1         1         1         9     -0.00000000
         2         1         1         1         1        10      0.00015309
         2         1         1         1         1        11     -0.00004485
         2         1         1         1         2         1      0.00062460
         2         1         1         1         2         2     -0.00087101
         2         1         1         1         2         3     -0.00093221
         2         1         1         1         2         4     -0.00000000
         2         1         1         1         2         5      0.00108901
         2         1         1         1         2         6      0.00161960
         2         1         1         1         2         7      0.00000000
         2         1         1         1         2         8     -0.00163486
         2         1         1         1         2         9      0.00000000
         2         1         1         1         2        10     -0.00015599
         2         1         1         1         2        11      0.00025252
         2         1         1         1         3         1      0.00037144
         2         1         1         1         3         2     -0.00063410
         2         1         1         1         3         3      0.00001123
         2         1         1         1         3         4      0.00000000
         2         1         1         1         3         5      0.00053041
         2         1         1         1         3         6      0.00080350
         2         1         1         1         3         7     -0.00000000
         2         1         1         1         3         8     -0.00024781
         2         1         1         1         3         9     -0.00000000
         2         1         1         1         3        10     -0.00009911
         2         1         1         1         3        11     -0.00080128
         2         1         1         1         4         1      0.00000000
         2         1         1         1         4         2     -0.00000000
         2         1         1         1         4         3      0.00000000
         2         1         1         1         4         4     -0.00005434
         2         1         1         1         4         5      0.00000000
         2         1         1         1         4         6      0.00000000
         2         1         1         1         4         7     -0.00004967
         2         1         1         1         4         8     -0.00000000
         2         1         1         1         4         9     -0.00020232
         2         1         1         1         4        10     -0.00000000
         2         1         1         1         4        11      0.00000000
         2         1         1         1         5         1     -0.00054985
         2         1         1         1         5         2      0.00080887
         2         1         1         1         5         3      0.00066996
         2         1         1         1         5         4      0.00000000
         2         1         1         1         5         5     -0.00097250
         2         1         1         1         5         6     -0.00144440
         2         1         1         1         5         7      0.00000000
         2         1         1         1         5         8      0.00134340
         2         1         1         1         5         9     -0.00000000
         2         1         1         1         5        10     -0.00001373
         2         1         1         1         5        11      0.00002994
         2         1         1         1         6         1     -0.00033825
         2         1         1         1         6         2      0.00048752
         2         1         1         1         6         3      0.00052852
         2         1         1         1         6         4      0.00000000
         2         1         1         1         6         5     -0.00065328
         2         1         1         1         6         6     -0.00108372
         2         1         1         1         6         7     -0.00000000
         2         1         1         1         6         8      0.00106075
         2         1         1         1         6         9     -0.00000000
         2         1         1         1         6        10      0.00005036
         2         1         1         1         6        11     -0.00000835
         2         1         1         1         7         1     -0.00000000
         2         1         1         1         7         2      0.00000000
         2         1         1         1         7         3     -0.00000000
         2         1         1         1         7         4     -0.00003650
         2         1         1         1         7         5      0.00000000
         2         1         1         1         7         6     -0.00000000
         2         1         1         1         7         7     -0.00007640
         2         1         1         1         7         8      0.00000000
         2         1         1         1         7         9     -0.00013316
         2         1         1         1         7        10      0.00000000
         2         1         1         1         7        11     -0.00000000
         2         1         1         1         8         1      0.00011167
         2         1         1         1         8         2     -0.00027331
         2         1         1         1         8         3      0.00033665
         2         1         1         1         8         4     -0.00000000
         2         1         1         1         8         5      0.00013422
         2         1         1         1         8         6      0.00017605
         2         1         1         1         8         7      0.00000000
         2         1         1         1         8         8      0.00032458
         2         1         1         1         8         9     -0.00000000
         2         1         1         1         8        10      0.00009788
         2         1         1         1         8        11     -0.00100884
         2         1         1         1         9         1     -0.00000000
         2         1         1         1         9         2      0.00000000
         2         1         1         1         9         3     -0.00000000
         2         1         1         1         9         4     -0.00005827
         2         1         1         1         9         5     -0.00000000
         2         1         1         1         9         6     -0.00000000
         2         1         1         1         9         7     -0.00005894
         2         1         1         1         9         8     -0.00000000
         2         1         1         1         9         9     -0.00033714
         2         1         1         1         9        10      0.00000000
         2         1         1         1         9        11     -0.00000000
         2         1         1         1        10         1     -0.00027788
         2         1         1         1        10         2      0.00042364
         2         1         1         1        10         3      0.00030881
         2         1         1         1        10         4     -0.00000000
         2         1         1         1        10         5     -0.00052149
         2         1         1         1        10         6     -0.00069000
         2         1         1         1        10         7      0.00000000
         2         1         1         1        10         8      0.00067853
         2         1         1         1        10         9      0.00000000
         2         1         1         1        10        10     -0.00035894
         2         1         1         1        10        11     -0.00016573
         2         1         1         1        11         1     -0.00022092
         2         1         1         1        11         2      0.00058209
         2         1         1         1        11         3     -0.00103818
         2         1         1         1        11         4      0.00000000
         2         1         1         1        11         5     -0.00011291
         2         1         1         1        11         6      0.00005705
         2         1         1         1        11         7     -0.00000000
         2         1         1         1        11         8     -0.00157024
         2         1         1         1        11         9     -0.00000000
         2         1         1         1        11        10     -0.00039698
         2         1         1         1        11        11      0.00326824
         2         1         2         2         1         1     -0.00051628
         2         1         2         2         1         2     -0.00075080
         2         1         2         2         1         3     -0.00018727
         2         1         2         2         1         4     -0.00145683
         2         1         2         2         1         5      0.00000000
         2         1         2         2         1         6      0.00026703
         2         1         2         2         1         7      0.00047768
         2         1         2         2         2         1     -0.00068914
         2         1         2         2         2         2     -0.00103039
         2         1         2         2         2         3     -0.00024694
         2         1         2         2         2         4     -0.00215555
         2         1         2         2         2         5      0.00000000
         2         1         2         2         2         6      0.00040089
         2         1         2         2         2         7      0.00073249
         2         1         2         2         3         1     -0.00024193
         2         1         2         2         3         2     -0.00033904
         2         1         2         2         3         3     -0.00014035
         2         1         2         2         3         4     -0.00060579
         2         1         2         2         3         5      0.00000000
         2         1         2         2         3         6     -0.00006957
         2         1         2         2         3         7      0.00029413
         2         1         2         2         4         1     -0.00044619
         2         1         2         2         4         2     -0.00073332
         2         1         2         2         4         3     -0.00015298
         2         1         2         2         4         4     -0.00191827
         2         1         2         2         4         5      0.00000000
         2         1         2         2         4         6      0.00039099
         2         1         2         2         4         7      0.00068671
         2         1         2         2         5         1      0.00000000
         2         1         2         2         5         2      0.00000000
         2         1         2         2         5         3      0.00000000
         2         1         2         2         5         4      0.00000000
         2         1         2         2         5         5     -0.00003459
         2         1         2         2         5         6     -0.00000000
         2         1         2         2         5         7     -0.00000000
         2         1         2         2         6         1     -0.00020984
         2         1         2         2         6         2     -0.00027151
         2         1         2         2         6         3     -0.00015728
         2         1         2         2         6         4     -0.00038232
         2         1         2         2         6         5     -0.00000000
         2         1         2         2         6         6     -0.00031579
         2         1         2         2         6         7      0.00027311
         2         1         2         2         7         1      0.00012259
         2         1         2         2         7         2      0.00020301
         2         1         2         2         7         3      0.00006038
         2         1         2         2         7         4      0.00054730
         2         1         2         2         7         5     -0.00000000
         2         1         2         2         7         6     -0.00005180
         2         1         2         2         7         7     -0.00027999
         2         1         3         3         1         1     -0.00051628
         2         1         3         3         1         2     -0.00075080
         2         1         3         3         1         3     -0.00018727
         2         1         3         3         1         4     -0.00145683
         2         1         3         3         1         5     -0.00000000
         2         1         3         3         1         6      0.00026703
         2         1         3         3         1         7      0.00047768
         2         1         3         3         2         1     -0.00068914
         2         1         3         3         2         2     -0.00103039
         2         1         3         3         2         3     -0.00024694
         2         1         3         3         2         4     -0.00215555
         2         1         3         3         2         5     -0.00000000
         2         1         3         3         2         6      0.00040089
         2         1         3         3         2         7      0.00073249
         2         1         3         3         3         1     -0.00024193
         2         1         3         3         3         2     -0.00033904
         2         1         3         3         3         3     -0.00014035
         2         1         3         3         3         4     -0.00060579
         2         1         3         3         3         5     -0.00000000
         2         1         3         3         3         6     -0.00006957
         2         1         3         3         3         7      0.00029413
         2         1         3         3         4         1     -0.00044619
         2         1         3         3         4         2     -0.00073332
         2         1         3         3         4         3     -0.00015298
         2         1         3         3         4         4     -0.00191827
         2         1         3         3         4         5     -0.00000000
         2         1         3         3         4         6      0.00039099
         2         1         3         3         4         7      0.00068671
         2         1         3         3         5         1     -0.00000000
         2         1         3         3         5         2     -0.00000000
         2         1         3         3         5         3     -0.00000000
         2         1         3         3         5         4     -0.00000000
         2         1         3         3         5         5     -0.00003459
         2         1         3         3         5         6      0.00000000
         2         1         3         3         5         7      0.00000000
         2         1         3         3         6         1     -0.00020984
         2         1         3         3         6         2     -0.00027151
         2         1         3         3         6         3     -0.00015728
         2         1         3         3         6         4     -0.00038232
         2         1         3         3         6         5      0.00000000
         2         1         3         3         6         6     -0.00031579
         2         1         3         3         6         7      0.00027311
         2         1         3         3         7         1      0.00012259
         2         1         3         3         7         2      0.00020301
         2         1         3         3         7         3      0.00006038
         2         1         3         3         7         4      0.00054730
         2         1         3         3         7         5      0.00000000
         2         1         3         3         7         6     -0.00005180
         2         1         3         3         7         7     -0.00027999
         2         1         4         4         1         1     -0.00005434
         2         1         4         4         1         2     -0.00004967
         2         1         4         4         1         3     -0.00020232
         2         1         4         4         2         1     -0.00003650
         2         1         4         4         2         2     -0.00007640
         2         1         4         4         2         3     -0.00013316
         2         1         4         4         3         1     -0.00005827
         2         1         4         4         3         2     -0.00005894
         2         1         4         4         3         3     -0.00033714
         2         1         5         5         1         1      0.00008939
         2         1         5         5         1         2     -0.00010503
         2         1         5         5         1         3     -0.00001080
         2         1         5         5         1         4      0.00032950
         2         1         5         5         1         5      0.00000000
         2         1         5         5         1         6      0.00007079
         2         1         5         5         1         7      0.00088203
         2         1         5         5         1         8     -0.00000000
         2         1         5         5         1         9     -0.00040492
         2         1         5         5         1        10      0.00000000
         2         1         5         5         1        11     -0.00088409
         2         1         5         5         1        12      0.00047362
         2         1         5         5         2         1     -0.00014866
         2         1         5         5         2         2      0.00015656
         2         1         5         5         2         3     -0.00004234
         2         1         5         5         2         4     -0.00033566
         2         1         5         5         2         5     -0.00000000
         2         1         5         5         2         6      0.00004757
         2         1         5         5         2         7     -0.00074687
         2         1         5         5         2         8     -0.00000000
         2         1         5         5         2         9      0.00032163
         2         1         5         5         2        10      0.00000000
         2         1         5         5         2        11      0.00073917
         2         1         5         5         2        12     -0.00050897
         2         1         5         5         3         1      0.00008747
         2         1         5         5         3         2     -0.00009005
         2         1         5         5         3         3     -0.00000919
         2         1         5         5         3         4      0.00024548
         2         1         5         5         3         5     -0.00000000
         2         1         5         5         3         6      0.00006701
         2         1         5         5         3         7      0.00062564
         2         1         5         5         3         8     -0.00000000
         2         1         5         5         3         9     -0.00029838
[...]
         3         2         5         1         2         6      0.00031623
         3         2         5         1         2         7     -0.00000000
         3         2         5         1         2         8      0.00036692
         3         2         5         1         2         9     -0.00000000
         3         2         5         1         2        10      0.00022604
         3         2         5         1         2        11     -0.00095078
         3         2         5         1         3         1     -0.00036226
         3         2         5         1         3         2      0.00058939
         3         2         5         1         3         3     -0.00000425
         3         2         5         1         3         4     -0.00000000
         3         2         5         1         3         5     -0.00042751
         3         2         5         1         3         6     -0.00034373
         3         2         5         1         3         7      0.00000000
         3         2         5         1         3         8     -0.00020873
         3         2         5         1         3         9     -0.00000000
         3         2         5         1         3        10     -0.00019680
         3         2         5         1         3        11      0.00063191
         3         2         5         1         4         1     -0.00004866
         3         2         5         1         4         2      0.00021411
         3         2         5         1         4         3     -0.00047524
         3         2         5         1         4         4     -0.00000000
         3         2         5         1         4         5     -0.00007570
         3         2         5         1         4         6     -0.00010819
         3         2         5         1         4         7      0.00000000
         3         2         5         1         4         8     -0.00046709
         3         2         5         1         4         9     -0.00000000
         3         2         5         1         4        10     -0.00013044
         3         2         5         1         4        11      0.00113046
         3         2         5         1         5         1      0.00000000
         3         2         5         1         5         2     -0.00000000
         3         2         5         1         5         3      0.00000000
         3         2         5         1         5         4     -0.00003765
         3         2         5         1         5         5     -0.00000000
         3         2         5         1         5         6      0.00000000
         3         2         5         1         5         7     -0.00001695
         3         2         5         1         5         8     -0.00000000
         3         2         5         1         5         9     -0.00004518
         3         2         5         1         5        10      0.00000000
         3         2         5         1         5        11     -0.00000000
         3         2         5         1         6         1      0.00084318
         3         2         5         1         6         2     -0.00135053
         3         2         5         1         6         3     -0.00008517
         3         2         5         1         6         4     -0.00000000
         3         2         5         1         6         5      0.00101227
         3         2         5         1         6         6      0.00082145
         3         2         5         1         6         7      0.00000000
         3         2         5         1         6         8      0.00040694
         3         2         5         1         6         9     -0.00000000
         3         2         5         1         6        10      0.00044465
         3         2         5         1         6        11     -0.00147534
         3         2         5         1         7         1      0.00087372
         3         2         5         1         7         2     -0.00113393
         3         2         5         1         7         3     -0.00111696
         3         2         5         1         7         4      0.00000000
         3         2         5         1         7         5      0.00107549
         3         2         5         1         7         6      0.00073793
         3         2         5         1         7         7     -0.00000000
         3         2         5         1         7         8     -0.00057347
         3         2         5         1         7         9      0.00000000
         3         2         5         1         7        10      0.00029754
         3         2         5         1         7        11      0.00098897
         3         2         5         1         8         1      0.00000000
         3         2         5         1         8         2     -0.00000000
         3         2         5         1         8         3      0.00000000
         3         2         5         1         8         4      0.00007012
         3         2         5         1         8         5     -0.00000000
         3         2         5         1         8         6      0.00000000
         3         2         5         1         8         7      0.00001716
         3         2         5         1         8         8     -0.00000000
         3         2         5         1         8         9      0.00012574
         3         2         5         1         8        10      0.00000000
         3         2         5         1         8        11     -0.00000000
         3         2         5         1         9         1     -0.00050435
         3         2         5         1         9         2      0.00068700
         3         2         5         1         9         3      0.00051316
         3         2         5         1         9         4     -0.00000000
         3         2         5         1         9         5     -0.00060291
         3         2         5         1         9         6     -0.00048238
         3         2         5         1         9         7      0.00000000
         3         2         5         1         9         8      0.00017096
         3         2         5         1         9         9     -0.00000000
         3         2         5         1         9        10     -0.00014931
         3         2         5         1         9        11     -0.00021384
         3         2         5         1        10         1      0.00000000
         3         2         5         1        10         2      0.00000000
         3         2         5         1        10         3      0.00000000
         3         2         5         1        10         4     -0.00019238
         3         2         5         1        10         5      0.00000000
         3         2         5         1        10         6     -0.00000000
         3         2         5         1        10         7     -0.00014039
         3         2         5         1        10         8      0.00000000
         3         2         5         1        10         9     -0.00031963
         3         2         5         1        10        10     -0.00000000
         3         2         5         1        10        11      0.00000000
         3         2         5         1        11         1     -0.00118168
         3         2         5         1        11         2      0.00176637
         3         2         5         1        11         3      0.00102353
         3         2         5         1        11         4      0.00000000
         3         2         5         1        11         5     -0.00174234
         3         2         5         1        11         6     -0.00126447
         3         2         5         1        11         7      0.00000000
         3         2         5         1        11         8      0.00042945
         3         2         5         1        11         9      0.00000000
         3         2         5         1        11        10     -0.00099422
         3         2         5         1        11        11     -0.00034105
         3         2         5         1        12         1     -0.00031156
         3         2         5         1        12         2      0.00064123
         3         2         5         1        12         3     -0.00057062
         3         2         5         1        12         4      0.00000000
         3         2         5         1        12         5     -0.00033227
         3         2         5         1        12         6     -0.00028004
         3         2         5         1        12         7      0.00000000
         3         2         5         1        12         8     -0.00094039
         3         2         5         1        12         9     -0.00000000
         3         2         5         1        12        10     -0.00031942
         3         2         5         1        12        11      0.00327685
         3         2         6         2         1         1     -0.00017628
         3         2         6         2         1         2     -0.00026231
         3         2         6         2         1         3     -0.00006085
         3         2         6         2         1         4     -0.00022410
         3         2         6         2         1         5      0.00000000
         3         2         6         2         1         6     -0.00002185
         3         2         6         2         1         7      0.00005823
         3         2         6         2         2         1     -0.00058843
         3         2         6         2         2         2     -0.00086357
         3         2         6         2         2         3     -0.00021496
         3         2         6         2         2         4     -0.00072498
         3         2         6         2         2         5     -0.00000000
         3         2         6         2         2         6     -0.00009991
         3         2         6         2         2         7      0.00019319
         3         2         6         2         3         1     -0.00015583
         3         2         6         2         3         2     -0.00022939
         3         2         6         2         3         3     -0.00008222
         3         2         6         2         3         4     -0.00018988
         3         2         6         2         3         5     -0.00000000
         3         2         6         2         3         6     -0.00005982
         3         2         6         2         3         7      0.00006311
         3         2         6         2         4         1     -0.00138513
         3         2         6         2         4         2     -0.00206538
         3         2         6         2         4         3     -0.00054358
         3         2         6         2         4         4     -0.00185590
         3         2         6         2         4         5     -0.00000000
         3         2         6         2         4         6     -0.00026219
         3         2         6         2         4         7      0.00053189
         3         2         6         2         5         1     -0.00000000
         3         2         6         2         5         2     -0.00000000
         3         2         6         2         5         3     -0.00000000
         3         2         6         2         5         4     -0.00000000
         3         2         6         2         5         5     -0.00003156
         3         2         6         2         5         6      0.00000000
         3         2         6         2         5         7      0.00000000
         3         2         6         2         6         1     -0.00043900
         3         2         6         2         6         2     -0.00065270
         3         2         6         2         6         3     -0.00008579
         3         2         6         2         6         4     -0.00061403
         3         2         6         2         6         5     -0.00000000
         3         2         6         2         6         6      0.00005132
         3         2         6         2         6         7      0.00011450
         3         2         6         2         7         1     -0.00062675
         3         2         6         2         7         2     -0.00097153
         3         2         6         2         7         3     -0.00043134
         3         2         6         2         7         4     -0.00092593
         3         2         6         2         7         5     -0.00000000
         3         2         6         2         7         6     -0.00048807
         3         2         6         2         7         7      0.00036556
         3         2         7         3         1         1     -0.00017628
         3         2         7         3         1         2     -0.00026231
         3         2         7         3         1         3     -0.00006085
         3         2         7         3         1         4     -0.00022410
         3         2         7         3         1         5     -0.00000000
         3         2         7         3         1         6     -0.00002185
         3         2         7         3         1         7      0.00005823
         3         2         7         3         2         1     -0.00058843
         3         2         7         3         2         2     -0.00086357
         3         2         7         3         2         3     -0.00021496
         3         2         7         3         2         4     -0.00072498
         3         2         7         3         2         5      0.00000000
         3         2         7         3         2         6     -0.00009991
         3         2         7         3         2         7      0.00019319
         3         2         7         3         3         1     -0.00015583
         3         2         7         3         3         2     -0.00022939
         3         2         7         3         3         3     -0.00008222
         3         2         7         3         3         4     -0.00018988
         3         2         7         3         3         5      0.00000000
         3         2         7         3         3         6     -0.00005982
         3         2         7         3         3         7      0.00006311
         3         2         7         3         4         1     -0.00138513
         3         2         7         3         4         2     -0.00206538
         3         2         7         3         4         3     -0.00054358
         3         2         7         3         4         4     -0.00185590
         3         2         7         3         4         5      0.00000000
         3         2         7         3         4         6     -0.00026219
         3         2         7         3         4         7      0.00053189
         3         2         7         3         5         1      0.00000000
         3         2         7         3         5         2      0.00000000
         3         2         7         3         5         3      0.00000000
         3         2         7         3         5         4      0.00000000
         3         2         7         3         5         5     -0.00003156
         3         2         7         3         5         6     -0.00000000
         3         2         7         3         5         7     -0.00000000
         3         2         7         3         6         1     -0.00043900
         3         2         7         3         6         2     -0.00065270
         3         2         7         3         6         3     -0.00008579
         3         2         7         3         6         4     -0.00061403
         3         2         7         3         6         5      0.00000000
         3         2         7         3         6         6      0.00005132
         3         2         7         3         6         7      0.00011450
         3         2         7         3         7         1     -0.00062675
         3         2         7         3         7         2     -0.00097153
         3         2         7         3         7         3     -0.00043134
         3         2         7         3         7         4     -0.00092593
         3         2         7         3         7         5      0.00000000
         3         2         7         3         7         6     -0.00048807
         3         2         7         3         7         7      0.00036556
         3         2         8         4         1         1     -0.00003765
         3         2         8         4         1         2     -0.00001695
         3         2         8         4         1         3     -0.00004518
         3         2         8         4         2         1      0.00007012
         3         2         8         4         2         2      0.00001716
         3         2         8         4         2         3      0.00012574
         3         2         8         4         3         1     -0.00019238
         3         2         8         4         3         2     -0.00014039
         3         2         8         4         3         3     -0.00031963


 RESULTS
 =======

  Reference energy                    -14.871136112507

  Correlated core orbitals:             1.1       1.5
  Orbital energies:                    -2.4529   -2.4525

  CCD core-core energy                 -0.025656427110
  CCD core-valence energy              -0.002418070044
  CCD valence correlation energy       -0.031436463778

  CCD singlet pair energy              -0.058889921110
  CCD triplet pair energy              -0.000621039822
  CCD correlation energy               -0.059510960933

 !CCD total energy                    -14.930647073439

 Timing summary (sec):

 STEP                 CPU(USER)    SYS     CPU(TOT)    WALL
 Transformation          0.01      0.00      0.01      0.01
 CCSD iterations         0.12      0.03      0.15      0.15

 Program statistics:

 Available memory in ccsd:                39999164
 Min. memory needed in ccsd:                 14528
 Max. memory used in ccsd:                   15848
 Max. memory used in cckext:                 44632 (30 integral passes)



 **********************************************************************************************************************************
 DATASETS  * FILE   NREC   LENGTH (MB)   RECORD NAMES
              1      20       31.37       500      700      610      900      950      970     1000      129      960     1100   
                                          VAR     GEOM    BASINP   SYMINP    ZMAT    AOBASIS   BASIS     P2S    ABASIS      S 
                                         1400     1410     1200     1210     1080     1600     1650     1300     1700     1380   
                                           T        V       H0       H01     AOSYM     SMH    MOLCAS    ERIS     OPER     JKOP   

              3       5       14.79       500      610      700     1000     2100   
                                          VAR    BASINP    GEOM     BASIS     RHF  

 PROGRAMS   *        TOTAL      CCSD       INT   RESTART
 CPU TIMES  *         0.61      0.21      0.27      0.01
 REAL TIME  *         0.77 SEC
 DISK USED  *        51.14 MB
 **********************************************************************************************************************************
 Molecular orbitals read from record     2100.3  Type=RHF/CANONICAL (state 1.1)
 Occupation numbers read from record     2100.3  Type=RHF/RHF (state 1.1)
 Orbital energies read from record       2100.3  Type=RHF/CANONICAL (state 1.1)
 Redundancy group numbers read from rec  2100.3  Type=RHF/RHF (state 1.1)

 CCSD/cc-pVTZ energy=    -14.930647073439

            CCSD
    -14.93064707
 **********************************************************************************************************************************
 Molpro calculation terminated
