
 Primary working directories    : /scr/yuriaoto/job.023447/molpro.Pl8FdFSn4J
 Secondary working directories  : /scr/yuriaoto/job.023447/molpro.Pl8FdFSn4J
 Wavefunction directory         : /scr/yuriaoto/job.023447/
 Main file repository           : /scr/yuriaoto/job.023447/molpro.Pl8FdFSn4J/

 id        : yuriaoto

 Nodes             nprocs
 t-rex.ufabc.int.br    1

 Using customized tuning parameters: mindgm=8; mindgv=16; mindgc=1; mindgr=1; noblas=0; minvec=7
 default implementation of scratch files=df  


 Variables initialized (933), CPU time= 0.00 sec
 ***,
 memory,40,m
 gprint,orbital,basis,civector
 gthresh,thrprint=0,printci=0.0
 file,3,wfu.dat,old
 
 {cisd,CC_NORM_MAX=10.0
 thresh,printci=0.0,ENERGY=1.0E-10,COEFF=1.0E-12
 print,ref=1
 core,0
 wf,6,1,0;
 }
 
 Commands  initialized (760), CPU time= 0.01 sec, 617 directives.
 Default parameters read. Elapsed time= 0.04 sec

 Checking input...
 Passed
1


                                         ***  PROGRAM SYSTEM MOLPRO  ***
                                       Copyright, TTI GmbH Stuttgart, 2015
                                    Version 2019.2 linked Abr  7 2019 15:10:35


 **********************************************************************************************************************************
 LABEL *                                                                                 
  64 bit serial version                                                                  DATE: 02-Jun-20          TIME: 00:36:20  
 **********************************************************************************************************************************

 SHA1:             3a8a58c585c929645742fb5a1b7541a4ad1da699
 **********************************************************************************************************************************


 THRESHOLDS:

 ZERO    =  1.00D-12  ONEINT  =  1.00D-12  TWOINT  =  1.00D-11  PREFAC  =  1.00D-14  XXXXXX  =  1.00D-09  EORDER  =  1.00D-04
 ENERGY  =  0.00D+00  ETEST   =  0.00D+00  EDENS   =  0.00D+00  THRDEDEF=  1.00D-06  GRADIENT=  1.00D-02  STEP    =  1.00D-03
 ORBITAL =  1.00D-05  CIVEC   =  1.00D-05  COEFF   =  1.00D-04  PRINTCI =  0.00D+00  PUNCHCI =  9.90D+01  OPTGRAD =  3.00D-04
 OPTENERG=  1.00D-06  OPTSTEP =  3.00D-04  THRGRAD =  1.00D-10  COMPRESS=  1.00D-11  VARMIN  =  1.00D-07  VARMAX  =  1.00D-03
 THRDOUB =  0.00D+00  THRDIV  =  1.00D-05  THRRED  =  1.00D-07  THRPSP  =  1.00D+00  THRDC   =  1.00D-10  THRCS   =  1.00D-10
 THRNRM  =  1.00D-08  THREQ   =  0.00D+00  THRDE   =  1.00D+00  THRREF  =  1.00D-05  SPARFAC =  1.00D+00  THRDLP  =  1.00D-07
 THRDIA  =  1.00D-10  THRDLS  =  1.00D-07  THRGPS  =  0.00D+00  THRKEX  =  0.00D+00  THRDIS  =  2.00D-01  THRVAR  =  1.00D-10
 THRLOC  =  1.00D-06  THRGAP  =  1.00D-06  THRLOCT = -1.00D+00  THRGAPT = -1.00D+00  THRORB  =  1.00D-06  THRMLTP =  0.00D+00
 THRCPQCI=  1.00D-10  KEXTA   =  0.00D+00  THRCOARS=  0.00D+00  SYMTOL  =  1.00D-06  GRADTOL =  1.00D-06  THROVL  =  1.00D-08
 THRORTH =  1.00D-08  GRID    =  1.00D-06  GRIDMAX =  1.00D-03  DTMAX   =  0.00D+00  THROCCDE=  1.00D-01  THROCCDE=  1.00D-01
 THRPRINT=  0.00D+00


 Variable memory set to   40000000 words,  buffer space 



 Permanent file  3  wfu.dat  assigned.  Implementation=df    Size= 14.10 MB


 PROGRAM * RESTART 


 Reading variables from file 3

 _FNUC           =      0.00000000
 _BASIS          =    CC-PVTZ
 _NELEC          =      6.00000000
 _PROGRAM        =    RHF-SCF
 _DMX_SCF        =      0.00000000
 _DMY_SCF        =      0.00000000
 _DMZ_SCF        =      0.00000000
 _HOMO           =      2.10000000
 _EHOMO          =     -0.18224319
 _LUMO           =      2.50000000
 _ELUMO          =      0.00671464
 _ENERGY         =    -14.87113611
 _ENERGY_METHOD  =    RHF
 _ENERGY_BASIS   =    cc-pVTZ
 _ENUC           =      1.80000000
 _EPS1(1:13)     =     -2.45288987    -0.18224319     0.03854712     0.10701166     0.14531626     0.20132214
                        0.29578721     0.48884990     0.54279194     0.67005534     0.71011391     0.76079758
                        3.02244577
 _EPS2(1:7)      =      0.02716422     0.11604575     0.23979625     0.45701108     0.51087424     0.65663878
                        0.75753063
 _EPS3(1:7)      =      0.02716422     0.11604575     0.23979625     0.45701108     0.51087424     0.65663878
                        0.75753063
 _EPS4(1:3)      =      0.20132214     0.54279194     0.71011391
 _EPS5(1:13)     =     -2.45251703     0.00671464     0.06418201     0.15568446     0.23456666     0.26036282
                        0.39933341     0.51839623     0.69667587     0.74973264     0.77175124     1.01349064
                        3.16580891
 _EPS6(1:7)      =      0.05594314     0.16306709     0.32645184     0.46064971     0.59133328     0.71550490
                        0.96090549
 _EPS7(1:7)      =      0.05594314     0.16306709     0.32645184     0.46064971     0.59133328     0.71550490
                        0.96090549
 _EPS8(1:3)      =      0.26036282     0.69667587     0.77175124
 _IPROC_MPP      =      0.00000000
 _IPROC_MPPX     =      0.00000000
 _ORBITAL        =   2100.30000000
 _STATUS         =      1.00000000
 _DATE           =    10-Feb-20
 _LASTORB        =    RHF
 _OUTPUT         =    /scr/yuriaoto/job.022757/RHF.xml
 _PGROUP         =    D2h 
 _TIME           =    10:55:45
 R               =      5.00000000

 Geometry written to block  1 of record 700


 **********************************************************************************************************************************
 DATASETS  * FILE   NREC   LENGTH (MB)   RECORD NAMES
              3       5       14.79       500      610      700     1000     2100   
                                          VAR    BASINP    GEOM     BASIS     RHF  

 PROGRAMS   *        TOTAL   RESTART
 CPU TIMES  *         0.12      0.02
 REAL TIME  *         0.14 SEC
 DISK USED  *        26.86 MB
 **********************************************************************************************************************************


 Recomputing integrals since basis changed


 Using spherical harmonics

 Library entry LI     S cc-pVTZ              selected for orbital group  1
 Library entry LI     P cc-pVTZ              selected for orbital group  1
 Library entry LI     D cc-pVTZ              selected for orbital group  1
 Library entry LI     F cc-pVTZ              selected for orbital group  1


 PROGRAM * SEWARD (Integral evaluation for generally contracted gaussian basis sets)     Author: Roland Lindh, 1990

 Geometry written to block  1 of record 700

 Orientation using atomic masses  
 Molecule type: Linear
 User-specified symmetry elements: X,Y,Z
 Symmetry elements: X,Y,Z
 Rotational constants:      20.8009354     20.8009354      0.0000000 GHz  (calculated with average atomic masses)

 Point group  D2h 



 ATOMIC COORDINATES

 NR  ATOM    CHARGE       X              Y              Z

   1  LI1     3.00    0.000000000    0.000000000   -2.500000000
   2  LI2     3.00    0.000000000    0.000000000    2.500000000

 Bond lengths in Bohr (Angstrom)

 1-2  5.000000000
     ( 2.645886055)


 BASIS DATA

   Nr Sym  Nuc  Type         Exponents   Contraction coefficients

    1.1 Ag    1  1s        5988.000000     0.000133   -0.000021    0.000000    0.000000
    2.1 Ag    2  1s         898.900000     0.001025   -0.000161    0.000000    0.000000
    3.1 Ag                  205.900000     0.005272   -0.000820    0.000000    0.000000
    4.1 Ag                   59.240000     0.020929   -0.003326    0.000000    0.000000
                             19.870000     0.066340   -0.010519    0.000000    0.000000
                              7.406000     0.165775   -0.028097    0.000000    0.000000
                              2.930000     0.315038   -0.055936    0.000000    0.000000
                              1.189000     0.393523   -0.099237    0.000000    0.000000
                              0.479800     0.190870   -0.112189    0.000000    0.000000
                              0.075090     0.005414    0.567889    1.000000    0.000000
                              0.028320    -0.001328    0.530382    0.000000    1.000000
    5.1 Ag    1  2pz          3.266000     0.008630    0.000000    0.000000
    6.1 Ag    2 -2pz          0.651100     0.047538    0.000000    0.000000
    7.1 Ag                    0.169600     0.209772    0.000000    0.000000
                              0.055780     0.528522    1.000000    0.000000
                              0.020500     0.382744    0.000000    1.000000
    8.1 Ag    1  3d0          0.190000     1.000000
              2  3d0   
    9.1 Ag    1  3d2+         0.190000     1.000000
              2  3d2+  
   10.1 Ag    1  3d0          0.072500     1.000000
              2  3d0   
   11.1 Ag    1  3d2+         0.072500     1.000000
              2  3d2+  
   12.1 Ag    1  4f0          0.127000     1.000000
              2 -4f0   
   13.1 Ag    1  4f2+         0.127000     1.000000
              2 -4f2+  
    1.2 B3u   1  2px          3.266000     0.008630    0.000000    0.000000
    2.2 B3u   2  2px          0.651100     0.047538    0.000000    0.000000
    3.2 B3u                   0.169600     0.209772    0.000000    0.000000
                              0.055780     0.528522    1.000000    0.000000
                              0.020500     0.382744    0.000000    1.000000
    4.2 B3u   1  3d1+         0.190000     1.000000
              2 -3d1+  
    5.2 B3u   1  3d1+         0.072500     1.000000
              2 -3d1+  
    6.2 B3u   1  4f1+         0.127000     1.000000
              2  4f1+  
    7.2 B3u   1  4f3+         0.127000     1.000000
              2  4f3+  
    1.3 B2u   1  2py          3.266000     0.008630    0.000000    0.000000
    2.3 B2u   2  2py          0.651100     0.047538    0.000000    0.000000
    3.3 B2u                   0.169600     0.209772    0.000000    0.000000
                              0.055780     0.528522    1.000000    0.000000
                              0.020500     0.382744    0.000000    1.000000
    4.3 B2u   1  3d1-         0.190000     1.000000
              2 -3d1-  
    5.3 B2u   1  3d1-         0.072500     1.000000
              2 -3d1-  
    6.3 B2u   1  4f1-         0.127000     1.000000
              2  4f1-  
    7.3 B2u   1  4f3-         0.127000     1.000000
              2  4f3-  
    1.4 B1g   1  3d2-         0.190000     1.000000
              2  3d2-  
    2.4 B1g   1  3d2-         0.072500     1.000000
              2  3d2-  
    3.4 B1g   1  4f2-         0.127000     1.000000
              2 -4f2-  
    1.5 B1u   1  1s        5988.000000     0.000133   -0.000021    0.000000    0.000000
    2.5 B1u   2 -1s         898.900000     0.001025   -0.000161    0.000000    0.000000
    3.5 B1u                 205.900000     0.005272   -0.000820    0.000000    0.000000
    4.5 B1u                  59.240000     0.020929   -0.003326    0.000000    0.000000
                             19.870000     0.066340   -0.010519    0.000000    0.000000
                              7.406000     0.165775   -0.028097    0.000000    0.000000
                              2.930000     0.315038   -0.055936    0.000000    0.000000
                              1.189000     0.393523   -0.099237    0.000000    0.000000
                              0.479800     0.190870   -0.112189    0.000000    0.000000
                              0.075090     0.005414    0.567889    1.000000    0.000000
                              0.028320    -0.001328    0.530382    0.000000    1.000000
    5.5 B1u   1  2pz          3.266000     0.008630    0.000000    0.000000
    6.5 B1u   2  2pz          0.651100     0.047538    0.000000    0.000000
    7.5 B1u                   0.169600     0.209772    0.000000    0.000000
                              0.055780     0.528522    1.000000    0.000000
                              0.020500     0.382744    0.000000    1.000000
    8.5 B1u   1  3d0          0.190000     1.000000
              2 -3d0   
    9.5 B1u   1  3d2+         0.190000     1.000000
              2 -3d2+  
   10.5 B1u   1  3d0          0.072500     1.000000
              2 -3d0   
   11.5 B1u   1  3d2+         0.072500     1.000000
              2 -3d2+  
   12.5 B1u   1  4f0          0.127000     1.000000
              2  4f0   
   13.5 B1u   1  4f2+         0.127000     1.000000
              2  4f2+  
    1.6 B2g   1  2px          3.266000     0.008630    0.000000    0.000000
    2.6 B2g   2 -2px          0.651100     0.047538    0.000000    0.000000
    3.6 B2g                   0.169600     0.209772    0.000000    0.000000
                              0.055780     0.528522    1.000000    0.000000
                              0.020500     0.382744    0.000000    1.000000
    4.6 B2g   1  3d1+         0.190000     1.000000
              2  3d1+  
    5.6 B2g   1  3d1+         0.072500     1.000000
              2  3d1+  
    6.6 B2g   1  4f1+         0.127000     1.000000
              2 -4f1+  
    7.6 B2g   1  4f3+         0.127000     1.000000
              2 -4f3+  
    1.7 B3g   1  2py          3.266000     0.008630    0.000000    0.000000
    2.7 B3g   2 -2py          0.651100     0.047538    0.000000    0.000000
    3.7 B3g                   0.169600     0.209772    0.000000    0.000000
                              0.055780     0.528522    1.000000    0.000000
                              0.020500     0.382744    0.000000    1.000000
    4.7 B3g   1  3d1-         0.190000     1.000000
              2  3d1-  
    5.7 B3g   1  3d1-         0.072500     1.000000
              2  3d1-  
    6.7 B3g   1  4f1-         0.127000     1.000000
              2 -4f1-  
    7.7 B3g   1  4f3-         0.127000     1.000000
              2 -4f3-  
    1.8 Au    1  3d2-         0.190000     1.000000
              2 -3d2-  
    2.8 Au    1  3d2-         0.072500     1.000000
              2 -3d2-  
    3.8 Au    1  4f2-         0.127000     1.000000
              2  4f2-  

 NUCLEAR CHARGE:                    6
 NUMBER OF PRIMITIVE AOS:          96
 NUMBER OF SYMMETRY AOS:           86
 NUMBER OF CONTRACTIONS:           60   (   13Ag  +    7B3u +    7B2u +    3B1g +   13B1u +    7B2g +    7B3g +    3Au  )
 NUMBER OF CORE ORBITALS:           2   (    1Ag  +    0B3u +    0B2u +    0B1g +    1B1u +    0B2g +    0B3g +    0Au  )
 NUMBER OF VALENCE ORBITALS:        8   (    2Ag  +    1B3u +    1B2u +    0B1g +    2B1u +    1B2g +    1B3g +    0Au  )


 NUCLEAR REPULSION ENERGY    1.80000000

 EXTRA SYMMETRY OF AOS IN SYMMETRY 1:   1 1 1 1 1 1 1 1 2 1   2 1 2
 EXTRA SYMMETRY OF AOS IN SYMMETRY 2:   1 1 1 1 1 1 2
 EXTRA SYMMETRY OF AOS IN SYMMETRY 3:   1 1 1 1 1 1 2
 EXTRA SYMMETRY OF AOS IN SYMMETRY 5:   1 1 1 1 1 1 1 1 2 1   2 1 2
 EXTRA SYMMETRY OF AOS IN SYMMETRY 6:   1 1 1 1 1 1 2
 EXTRA SYMMETRY OF AOS IN SYMMETRY 7:   1 1 1 1 1 1 2

 Eigenvalues of metric

         1 0.105E-02 0.623E-02 0.554E-01 0.144E+00 0.376E+00 0.389E+00 0.852E+00 0.121E+01
         2 0.163E-01 0.202E+00 0.443E+00 0.996E+00 0.120E+01 0.217E+01 0.466E+01
         3 0.163E-01 0.202E+00 0.443E+00 0.996E+00 0.120E+01 0.217E+01 0.466E+01
         4 0.376E+00 0.121E+01 0.236E+01
         5 0.953E-03 0.131E-02 0.820E-02 0.163E-01 0.171E+00 0.188E+00 0.335E+00 0.399E+00
         6 0.798E-02 0.188E-01 0.958E-01 0.281E+00 0.796E+00 0.128E+01 0.183E+01
         7 0.798E-02 0.188E-01 0.958E-01 0.281E+00 0.796E+00 0.128E+01 0.183E+01
         8 0.171E+00 0.399E+00 0.149E+01


 Contracted 2-electron integrals neglected if value below      1.0D-11
 AO integral compression algorithm  1   Integral accuracy      1.0D-11

     1.835 MB (compressed) written to integral file ( 55.5%)


 NUMBER OF SORTED TWO-ELECTRON INTEGRALS:     230799.     BUFFER LENGTH:  32768
 NUMBER OF SEGMENTS:   1  SEGMENT LENGTH:     230799      RECORD LENGTH: 524288

 Memory used in sort:       0.79 MW

 SORT1 READ      450560. AND WROTE      192195. INTEGRALS IN      1 RECORDS. CPU TIME:     0.01 SEC, REAL TIME:     0.02 SEC
 SORT2 READ      192195. AND WROTE      230799. INTEGRALS IN      7 RECORDS. CPU TIME:     0.09 SEC, REAL TIME:     0.11 SEC

 FILE SIZES:   FILE 1:    31.9 MBYTE,  FILE 4:     4.2 MBYTE,   TOTAL:     36.1 MBYTE

 OPERATOR DM      FOR CENTER  0  COORDINATES:    0.000000    0.000000    0.000000


 **********************************************************************************************************************************
 DATASETS  * FILE   NREC   LENGTH (MB)   RECORD NAMES
              1      19       31.01       500      700      610      900      950      970     1000      129      960     1100   
                                          VAR     GEOM    BASINP   SYMINP    ZMAT    AOBASIS   BASIS     P2S    ABASIS      S 
                                         1400     1410     1200     1210     1080     1600     1650     1300     1700   
                                           T        V       H0       H01     AOSYM     SMH    MOLCAS    ERIS     OPER   

              3       5       14.79       500      610      700     1000     2100   
                                          VAR    BASINP    GEOM     BASIS     RHF  

 PROGRAMS   *        TOTAL       INT   RESTART
 CPU TIMES  *         0.45      0.33      0.02
 REAL TIME  *         0.62 SEC
 DISK USED  *        51.14 MB
 **********************************************************************************************************************************


 PROGRAM * CISD (Closed-shell CI(SD))     Authors: C. Hampel, H.-J. Werner, 1991, M. Deegan, P.J. Knowles, 1992


 Input parameters for THRESH:

 ENERGY   =    1.00D-10
 COEFF    =    1.00D-12
 PRINTCI  =    0.000000
 THRPRINT =    0.000000

 Convergence thresholds:  THRVAR = 1.00D-24  THRDEN = 1.00D-10

 Number of closed-shell orbitals:   3 (   2   0   0   0   1   0   0   0 )
 Number of external orbitals:      57 (  11   7   7   3  12   7   7   3 )

 Molecular orbitals read from record     2100.3  Type=RHF/CANONICAL (state 1.1)

 Number of N-1 electron functions:               3
 Number of N-2 electron functions:               6
 Number of singly external CSFs:                34
 Number of doubly external CSFs:              2239
 Total number of CSFs:                        2274

 Length of J-op  integral file:               0.00 MB
 Length of K-op  integral file:               0.07 MB

 Integral transformation finished. Total CPU:   0.00 sec, npass=  1  Memory used:   0.07 MW

 Reference energy:                    -14.87113611

 MP2 singlet pair energy:              -0.04440448
 MP2 triplet pair energy:              -0.00061015
 MP2 correlation energy:               -0.04501463
 MP2 total energy:                    -14.91615074

 SCS-MP2 correlation energy:           -0.05366502   (PS=  1.200000  PT=  0.333333)
 SCS-MP2 total energy:                -14.92480113

 ITER.      SQ.NORM     CORR.ENERGY   TOTAL ENERGY   ENERGY CHANGE        DEN1      VAR(S)    VAR(P)  DIIS     TIME  TIME/IT
   1      1.05120419    -0.05479838   -14.92593449    -0.00978375    -0.00631462  0.12D-03  0.21D-02  1  1     0.02     0.01
   2      1.06596570    -0.05616824   -14.92730436    -0.00136987    -0.00328604  0.49D-04  0.51D-03  2  2     0.03     0.01
   3      1.08320736    -0.05697745   -14.92811356    -0.00080921    -0.00240077  0.61D-06  0.46D-04  3  3     0.04     0.01
   4      1.08762324    -0.05745654   -14.92859265    -0.00047909    -0.00045121  0.52D-06  0.75D-05  4  4     0.04     0.01
   5      1.08817571    -0.05748843   -14.92862455    -0.00003189     0.00000518  0.17D-06  0.13D-05  5  5     0.05     0.01
   6      1.08853858    -0.05749419   -14.92863030    -0.00000576    -0.00002416  0.31D-07  0.20D-06  6  6     0.06     0.01
   7      1.08865033    -0.05749537   -14.92863149    -0.00000118    -0.00001049  0.15D-07  0.26D-07  6  1     0.07     0.01
   8      1.08864724    -0.05749555   -14.92863166    -0.00000018     0.00000153  0.52D-08  0.41D-08  6  2     0.07     0.01
   9      1.08865058    -0.05749558   -14.92863169    -0.00000003    -0.00000025  0.12D-08  0.78D-09  6  3     0.08     0.01
  10      1.08865057    -0.05749559   -14.92863170    -0.00000001    -0.00000011  0.15D-09  0.12D-09  6  4     0.08     0.01
  11      1.08865141    -0.05749559   -14.92863170    -0.00000000    -0.00000019  0.13D-10  0.18D-10  6  5     0.09     0.01
  12      1.08865078    -0.05749559   -14.92863170    -0.00000000     0.00000004  0.16D-11  0.37D-11  6  6     0.10     0.01
  13      1.08865026    -0.05749559   -14.92863170    -0.00000000     0.00000005  0.12D-12  0.91D-12  6  1     0.10     0.01
  14      1.08864986    -0.05749559   -14.92863170    -0.00000000     0.00000004  0.83D-14  0.25D-12  6  2     0.11     0.01
  15      1.08864962    -0.05749559   -14.92863170    -0.00000000     0.00000002  0.20D-14  0.41D-13  6  4     0.11     0.01
  16      1.08864954    -0.05749559   -14.92863170    -0.00000000     0.00000001  0.18D-14  0.45D-14  6  3     0.12     0.01
  17      1.08864952    -0.05749559   -14.92863170    -0.00000000     0.00000000  0.87D-15  0.87D-15  6  5     0.12     0.01
  18      1.08864951    -0.05749559   -14.92863170     0.00000000     0.00000000  0.24D-15  0.12D-15  6  6     0.13     0.01
  19      1.08864951    -0.05749559   -14.92863170     0.00000000     0.00000000  0.45D-16  0.27D-16  6  3     0.13     0.01
  20      1.08864951    -0.05749559   -14.92863170    -0.00000000     0.00000000  0.32D-17  0.45D-17  6  4     0.14     0.01
  21      1.08864951    -0.05749559   -14.92863170    -0.00000000     0.00000000  0.78D-19  0.54D-18  6  1     0.14     0.01
  22      1.08864951    -0.05749559   -14.92863170    -0.00000000    -0.00000000  0.78D-20  0.11D-18  6  2     0.15     0.01
  23      1.08864951    -0.05749559   -14.92863170     0.00000000    -0.00000000  0.10D-20  0.15D-19  6  5     0.15     0.01
  24      1.08864951    -0.05749559   -14.92863170     0.00000000    -0.00000000  0.23D-21  0.24D-20  6  6     0.16     0.01
  25      1.08864951    -0.05749559   -14.92863170    -0.00000000     0.00000000  0.12D-21  0.27D-21  6  3     0.16     0.01
  26      1.08864951    -0.05749559   -14.92863170     0.00000000     0.00000000  0.43D-22  0.69D-22  6  4     0.16     0.01
  27      1.08864951    -0.05749559   -14.92863170    -0.00000000     0.00000000  0.19D-22  0.23D-22  6  1     0.17     0.01
  28      1.08864951    -0.05749559   -14.92863170    -0.00000000     0.00000000  0.41D-23  0.40D-23  6  2     0.17     0.01
  29      1.08864951    -0.05749559   -14.92863170     0.00000000     0.00000000  0.19D-23  0.23D-23  6  5     0.18     0.01
  30      1.08864951    -0.05749559   -14.92863170    -0.00000000     0.00000000  0.59D-24  0.78D-24  6  6     0.18     0.01
  31      1.08864951    -0.05749559   -14.92863170    -0.00000000     0.00000000  0.20D-24  0.31D-24  6  3     0.19     0.01


 ! DIPOLE MOMENTS:                      0.00000000     0.00000000     0.00000000



 Norm of t1 vector:      0.03195534      S-energy:    -0.00005393      T1 diagnostic:  0.00922471

 Singles amplitudes (print threshold =  0.000E+00):

         I         SYM. A    A   T(IA)

         1         1         1      0.00018267
         1         1         2     -0.00062241
         1         1         3      0.00130421
         1         1         4      0.00000000
         1         1         5      0.00008329
         1         1         6     -0.00007210
         1         1         7     -0.00000000
         1         1         8      0.00158717
         1         1         9     -0.00000000
         1         1        10      0.00032559
         1         1        11     -0.00105165
         2         1         1      0.01413252
         2         1         2     -0.01626014
         2         1         3      0.00464861
         2         1         4     -0.00000000
         2         1         5      0.00287137
         2         1         6     -0.00023555
         2         1         7     -0.00000000
         2         1         8      0.00065783
         2         1         9     -0.00000000
         2         1        10      0.00005052
         2         1        11     -0.00026014
         3         5         1     -0.00111144
         3         5         2      0.00111720
         3         5         3     -0.00075745
         3         5         4     -0.00133939
         3         5         5      0.00000000
         3         5         6      0.00169629
         3         5         7     -0.00113580
         3         5         8      0.00000000
         3         5         9      0.00022167
         3         5        10     -0.00000000
         3         5        11      0.00034950
         3         5        12     -0.00099200

 Doubles amplitudes (print threshold =  0.000E+00):

         I         J         SYM. A    SYM. B    A         B      T(IJ, AB)

         1         1         1         1         1         1     -0.00008809
         1         1         1         1         1         2      0.00018032
         1         1         1         1         1         3     -0.00005293
         1         1         1         1         1         4      0.00000000
         1         1         1         1         1         5     -0.00017449
         1         1         1         1         1         6     -0.00036561
         1         1         1         1         1         7      0.00000000
         1         1         1         1         1         8      0.00015649
         1         1         1         1         1         9     -0.00000000
         1         1         1         1         1        10      0.00005740
         1         1         1         1         1        11      0.00068679
         1         1         1         1         2         1      0.00018032
         1         1         1         1         2         2     -0.00038201
         1         1         1         1         2         3      0.00027107
         1         1         1         1         2         4     -0.00000000
         1         1         1         1         2         5      0.00028968
         1         1         1         1         2         6      0.00055764
         1         1         1         1         2         7      0.00000000
         1         1         1         1         2         8      0.00006383
         1         1         1         1         2         9      0.00000000
         1         1         1         1         2        10     -0.00001241
         1         1         1         1         2        11     -0.00183059
         1         1         1         1         3         1     -0.00005293
         1         1         1         1         3         2      0.00027107
         1         1         1         1         3         3     -0.00085283
         1         1         1         1         3         4     -0.00000000
         1         1         1         1         3         5      0.00006485
         1         1         1         1         3         6      0.00028214
         1         1         1         1         3         7     -0.00000000
         1         1         1         1         3         8     -0.00149925
         1         1         1         1         3         9     -0.00000000
         1         1         1         1         3        10     -0.00035044
         1         1         1         1         3        11      0.00301696
         1         1         1         1         4         1      0.00000000
         1         1         1         1         4         2     -0.00000000
         1         1         1         1         4         3     -0.00000000
         1         1         1         1         4         4      0.00001167
         1         1         1         1         4         5     -0.00000000
         1         1         1         1         4         6      0.00000000
         1         1         1         1         4         7      0.00000402
         1         1         1         1         4         8     -0.00000000
         1         1         1         1         4         9     -0.00000565
         1         1         1         1         4        10      0.00000000
         1         1         1         1         4        11     -0.00000000
         1         1         1         1         5         1     -0.00017449
         1         1         1         1         5         2      0.00028968
         1         1         1         1         5         3      0.00006485
         1         1         1         1         5         4     -0.00000000
         1         1         1         1         5         5     -0.00030167
         1         1         1         1         5         6     -0.00061754
         1         1         1         1         5         7      0.00000000
         1         1         1         1         5         8      0.00048653
         1         1         1         1         5         9     -0.00000000
         1         1         1         1         5        10      0.00012856
         1         1         1         1         5        11      0.00058285
         1         1         1         1         6         1     -0.00036561
         1         1         1         1         6         2      0.00055764
         1         1         1         1         6         3      0.00028214
         1         1         1         1         6         4      0.00000000
         1         1         1         1         6         5     -0.00061754
         1         1         1         1         6         6     -0.00125479
         1         1         1         1         6         7      0.00000000
         1         1         1         1         6         8      0.00126116
         1         1         1         1         6         9     -0.00000000
         1         1         1         1         6        10      0.00034126
         1         1         1         1         6        11      0.00054858
         1         1         1         1         7         1      0.00000000
         1         1         1         1         7         2      0.00000000
         1         1         1         1         7         3     -0.00000000
         1         1         1         1         7         4      0.00000402
         1         1         1         1         7         5      0.00000000
         1         1         1         1         7         6      0.00000000
         1         1         1         1         7         7      0.00000689
         1         1         1         1         7         8      0.00000000
         1         1         1         1         7         9     -0.00000626
         1         1         1         1         7        10     -0.00000000
         1         1         1         1         7        11     -0.00000000
         1         1         1         1         8         1      0.00015649
         1         1         1         1         8         2      0.00006383
         1         1         1         1         8         3     -0.00149925
         1         1         1         1         8         4     -0.00000000
         1         1         1         1         8         5      0.00048653
         1         1         1         1         8         6      0.00126116
         1         1         1         1         8         7      0.00000000
         1         1         1         1         8         8     -0.00322064
         1         1         1         1         8         9     -0.00000000
         1         1         1         1         8        10     -0.00078354
         1         1         1         1         8        11      0.00454873
         1         1         1         1         9         1     -0.00000000
         1         1         1         1         9         2      0.00000000
         1         1         1         1         9         3     -0.00000000
         1         1         1         1         9         4     -0.00000565
         1         1         1         1         9         5     -0.00000000
         1         1         1         1         9         6     -0.00000000
         1         1         1         1         9         7     -0.00000626
         1         1         1         1         9         8     -0.00000000
         1         1         1         1         9         9     -0.00004834
         1         1         1         1         9        10      0.00000000
         1         1         1         1         9        11     -0.00000000
         1         1         1         1        10         1      0.00005740
         1         1         1         1        10         2     -0.00001241
         1         1         1         1        10         3     -0.00035044
         1         1         1         1        10         4      0.00000000
         1         1         1         1        10         5      0.00012856
         1         1         1         1        10         6      0.00034126
         1         1         1         1        10         7     -0.00000000
         1         1         1         1        10         8     -0.00078354
         1         1         1         1        10         9      0.00000000
         1         1         1         1        10        10     -0.00027122
         1         1         1         1        10        11      0.00100322
         1         1         1         1        11         1      0.00068679
         1         1         1         1        11         2     -0.00183059
         1         1         1         1        11         3      0.00301696
         1         1         1         1        11         4     -0.00000000
         1         1         1         1        11         5      0.00058285
         1         1         1         1        11         6      0.00054858
         1         1         1         1        11         7     -0.00000000
         1         1         1         1        11         8      0.00454873
         1         1         1         1        11         9     -0.00000000
         1         1         1         1        11        10      0.00100322
         1         1         1         1        11        11     -0.01565588
         1         1         2         2         1         1      0.00003023
         1         1         2         2         1         2     -0.00002991
         1         1         2         2         1         3      0.00001089
         1         1         2         2         1         4     -0.00040377
         1         1         2         2         1         5      0.00000000
         1         1         2         2         1         6      0.00014775
         1         1         2         2         1         7      0.00015477
         1         1         2         2         2         1     -0.00002991
         1         1         2         2         2         2     -0.00010253
         1         1         2         2         2         3     -0.00000650
         1         1         2         2         2         4     -0.00060862
         1         1         2         2         2         5      0.00000000
         1         1         2         2         2         6      0.00021227
         1         1         2         2         2         7      0.00023023
         1         1         2         2         3         1      0.00001089
         1         1         2         2         3         2     -0.00000650
         1         1         2         2         3         3      0.00001035
         1         1         2         2         3         4     -0.00012282
         1         1         2         2         3         5      0.00000000
         1         1         2         2         3         6      0.00004035
         1         1         2         2         3         7      0.00005434
         1         1         2         2         4         1     -0.00040377
         1         1         2         2         4         2     -0.00060862
         1         1         2         2         4         3     -0.00012282
         1         1         2         2         4         4     -0.00206453
         1         1         2         2         4         5      0.00000000
         1         1         2         2         4         6      0.00068374
         1         1         2         2         4         7      0.00077624
         1         1         2         2         5         1      0.00000000
         1         1         2         2         5         2      0.00000000
         1         1         2         2         5         3      0.00000000
         1         1         2         2         5         4      0.00000000
         1         1         2         2         5         5      0.00000555
         1         1         2         2         5         6     -0.00000000
         1         1         2         2         5         7     -0.00000000
         1         1         2         2         6         1      0.00014775
         1         1         2         2         6         2      0.00021227
         1         1         2         2         6         3      0.00004035
         1         1         2         2         6         4      0.00068374
         1         1         2         2         6         5     -0.00000000
         1         1         2         2         6         6     -0.00026042
         1         1         2         2         6         7     -0.00022999
         1         1         2         2         7         1      0.00015477
         1         1         2         2         7         2      0.00023023
         1         1         2         2         7         3      0.00005434
         1         1         2         2         7         4      0.00077624
         1         1         2         2         7         5     -0.00000000
         1         1         2         2         7         6     -0.00022999
         1         1         2         2         7         7     -0.00030497
         1         1         3         3         1         1      0.00003023
         1         1         3         3         1         2     -0.00002991
         1         1         3         3         1         3      0.00001089
         1         1         3         3         1         4     -0.00040377
         1         1         3         3         1         5     -0.00000000
         1         1         3         3         1         6      0.00014775
         1         1         3         3         1         7      0.00015477
         1         1         3         3         2         1     -0.00002991
         1         1         3         3         2         2     -0.00010253
         1         1         3         3         2         3     -0.00000650
         1         1         3         3         2         4     -0.00060862
         1         1         3         3         2         5     -0.00000000
         1         1         3         3         2         6      0.00021227
         1         1         3         3         2         7      0.00023023
         1         1         3         3         3         1      0.00001089
         1         1         3         3         3         2     -0.00000650
         1         1         3         3         3         3      0.00001035
         1         1         3         3         3         4     -0.00012282
         1         1         3         3         3         5     -0.00000000
         1         1         3         3         3         6      0.00004035
         1         1         3         3         3         7      0.00005434
         1         1         3         3         4         1     -0.00040377
         1         1         3         3         4         2     -0.00060862
         1         1         3         3         4         3     -0.00012282
         1         1         3         3         4         4     -0.00206453
         1         1         3         3         4         5     -0.00000000
         1         1         3         3         4         6      0.00068374
         1         1         3         3         4         7      0.00077624
         1         1         3         3         5         1     -0.00000000
         1         1         3         3         5         2     -0.00000000
         1         1         3         3         5         3     -0.00000000
         1         1         3         3         5         4     -0.00000000
         1         1         3         3         5         5      0.00000555
         1         1         3         3         5         6      0.00000000
         1         1         3         3         5         7      0.00000000
         1         1         3         3         6         1      0.00014775
         1         1         3         3         6         2      0.00021227
         1         1         3         3         6         3      0.00004035
         1         1         3         3         6         4      0.00068374
         1         1         3         3         6         5      0.00000000
         1         1         3         3         6         6     -0.00026042
         1         1         3         3         6         7     -0.00022999
         1         1         3         3         7         1      0.00015477
         1         1         3         3         7         2      0.00023023
         1         1         3         3         7         3      0.00005434
         1         1         3         3         7         4      0.00077624
         1         1         3         3         7         5      0.00000000
         1         1         3         3         7         6     -0.00022999
         1         1         3         3         7         7     -0.00030497
         1         1         4         4         1         1      0.00001167
         1         1         4         4         1         2      0.00000402
         1         1         4         4         1         3     -0.00000565
         1         1         4         4         2         1      0.00000402
         1         1         4         4         2         2      0.00000689
         1         1         4         4         2         3     -0.00000626
         1         1         4         4         3         1     -0.00000565
         1         1         4         4         3         2     -0.00000626
         1         1         4         4         3         3     -0.00004834
         1         1         5         5         1         1     -0.00036077
         1         1         5         5         1         2      0.00041139
         1         1         5         5         1         3     -0.00033333
         1         1         5         5         1         4     -0.00054681
         1         1         5         5         1         5      0.00000000
         1         1         5         5         1         6      0.00092241
         1         1         5         5         1         7     -0.00045171
         1         1         5         5         1         8      0.00000000
         1         1         5         5         1         9      0.00006703
         1         1         5         5         1        10      0.00000000
         1         1         5         5         1        11      0.00008197
         1         1         5         5         1        12     -0.00227530
         1         1         5         5         2         1      0.00041139
         1         1         5         5         2         2     -0.00045436
         1         1         5         5         2         3      0.00035541
         1         1         5         5         2         4      0.00059869
         1         1         5         5         2         5      0.00000000
         1         1         5         5         2         6     -0.00096689
         1         1         5         5         2         7      0.00051876
         1         1         5         5         2         8      0.00000000
         1         1         5         5         2         9     -0.00009561
         1         1         5         5         2        10     -0.00000000
         1         1         5         5         2        11     -0.00013137
         1         1         5         5         2        12      0.00242770
         1         1         5         5         3         1     -0.00033333
         1         1         5         5         3         2      0.00035541
         1         1         5         5         3         3     -0.00028058
         1         1         5         5         3         4     -0.00042790
         1         1         5         5         3         5      0.00000000
         1         1         5         5         3         6      0.00075662
         1         1         5         5         3         7     -0.00025699
         1         1         5         5         3         8      0.00000000
         1         1         5         5         3         9     -0.00001952
         1         1         5         5         3        10     -0.00000000
         1         1         5         5         3        11     -0.00007669
         1         1         5         5         3        12     -0.00176657
         1         1         5         5         4         1     -0.00054681
         1         1         5         5         4         2      0.00059869
         1         1         5         5         4         3     -0.00042790
         1         1         5         5         4         4     -0.00082600
         1         1         5         5         4         5      0.00000000
         1         1         5         5         4         6      0.00113425
         1         1         5         5         4         7     -0.00093732
         1         1         5         5         4         8      0.00000000
         1         1         5         5         4         9      0.00030507
         1         1         5         5         4        10     -0.00000000
         1         1         5         5         4        11      0.00053120
         1         1         5         5         4        12     -0.00323261
         1         1         5         5         5         1      0.00000000
         1         1         5         5         5         2      0.00000000
         1         1         5         5         5         3      0.00000000
         1         1         5         5         5         4      0.00000000
         1         1         5         5         5         5      0.00000510
         1         1         5         5         5         6     -0.00000000
         1         1         5         5         5         7      0.00000000
         1         1         5         5         5         8      0.00000166
         1         1         5         5         5         9     -0.00000000
         1         1         5         5         5        10     -0.00000321
         1         1         5         5         5        11     -0.00000000
         1         1         5         5         5        12     -0.00000000
         1         1         5         5         6         1      0.00092241
         1         1         5         5         6         2     -0.00096689
         1         1         5         5         6         3      0.00075662
         1         1         5         5         6         4      0.00113425
         1         1         5         5         6         5     -0.00000000
         1         1         5         5         6         6     -0.00200562
         1         1         5         5         6         7      0.00062789
         1         1         5         5         6         8      0.00000000
         1         1         5         5         6         9      0.00009356
         1         1         5         5         6        10     -0.00000000
         1         1         5         5         6        11      0.00029202
         1         1         5         5         6        12      0.00459873
         1         1         5         5         7         1     -0.00045171
         1         1         5         5         7         2      0.00051876
         1         1         5         5         7         3     -0.00025699
         1         1         5         5         7         4     -0.00093732
         1         1         5         5         7         5      0.00000000
         1         1         5         5         7         6      0.00062789
         1         1         5         5         7         7     -0.00186808
         1         1         5         5         7         8     -0.00000000
         1         1         5         5         7         9      0.00099195
         1         1         5         5         7        10      0.00000000
         1         1         5         5         7        11      0.00189839
         1         1         5         5         7        12     -0.00331383
         1         1         5         5         8         1      0.00000000
         1         1         5         5         8         2      0.00000000
         1         1         5         5         8         3      0.00000000
         1         1         5         5         8         4      0.00000000
         1         1         5         5         8         5      0.00000166
         1         1         5         5         8         6      0.00000000
         1         1         5         5         8         7     -0.00000000
         1         1         5         5         8         8     -0.00000529
         1         1         5         5         8         9      0.00000000
         1         1         5         5         8        10      0.00002023
         1         1         5         5         8        11     -0.00000000
         1         1         5         5         8        12     -0.00000000
         1         1         5         5         9         1      0.00006703
         1         1         5         5         9         2     -0.00009561
         1         1         5         5         9         3     -0.00001952
         1         1         5         5         9         4      0.00030507
         1         1         5         5         9         5     -0.00000000
         1         1         5         5         9         6      0.00009356
         1         1         5         5         9         7      0.00099195
         1         1         5         5         9         8      0.00000000
         1         1         5         5         9         9     -0.00062842
         1         1         5         5         9        10     -0.00000000
         1         1         5         5         9        11     -0.00122493
         1         1         5         5         9        12      0.00090165
         1         1         5         5        10         1      0.00000000
         1         1         5         5        10         2     -0.00000000
         1         1         5         5        10         3     -0.00000000
         1         1         5         5        10         4     -0.00000000
         1         1         5         5        10         5     -0.00000321
         1         1         5         5        10         6     -0.00000000
         1         1         5         5        10         7      0.00000000
         1         1         5         5        10         8      0.00002023
         1         1         5         5        10         9     -0.00000000
         1         1         5         5        10        10     -0.00004323
         1         1         5         5        10        11     -0.00000000
         1         1         5         5        10        12      0.00000000
         1         1         5         5        11         1      0.00008197
         1         1         5         5        11         2     -0.00013137
         1         1         5         5        11         3     -0.00007669
         1         1         5         5        11         4      0.00053120
         1         1         5         5        11         5     -0.00000000
         1         1         5         5        11         6      0.00029202
         1         1         5         5        11         7      0.00189839
         1         1         5         5        11         8     -0.00000000
         1         1         5         5        11         9     -0.00122493
         1         1         5         5        11        10     -0.00000000
         1         1         5         5        11        11     -0.00255102
         1         1         5         5        11        12      0.00152811
         1         1         5         5        12         1     -0.00227530
         1         1         5         5        12         2      0.00242770
         1         1         5         5        12         3     -0.00176657
         1         1         5         5        12         4     -0.00323261
         1         1         5         5        12         5     -0.00000000
         1         1         5         5        12         6      0.00459873
         1         1         5         5        12         7     -0.00331383
         1         1         5         5        12         8     -0.00000000
         1         1         5         5        12         9      0.00090165
         1         1         5         5        12        10      0.00000000
         1         1         5         5        12        11      0.00152811
         1         1         5         5        12        12     -0.01533409
         1         1         6         6         1         1     -0.00001880
         1         1         6         6         1         2     -0.00005979
         1         1         6         6         1         3     -0.00001521
         1         1         6         6         1         4     -0.00020618
         1         1         6         6         1         5      0.00000000
         1         1         6         6         1         6     -0.00008710
         1         1         6         6         1         7     -0.00009045
         1         1         6         6         2         1     -0.00005979
         1         1         6         6         2         2     -0.00017591
         1         1         6         6         2         3     -0.00004477
         1         1         6         6         2         4     -0.00059520
         1         1         6         6         2         5      0.00000000
         1         1         6         6         2         6     -0.00024969
         1         1         6         6         2         7     -0.00026409
         1         1         6         6         3         1     -0.00001521
         1         1         6         6         3         2     -0.00004477
         1         1         6         6         3         3     -0.00000785
         1         1         6         6         3         4     -0.00014910
         1         1         6         6         3         5      0.00000000
         1         1         6         6         3         6     -0.00006268
         1         1         6         6         3         7     -0.00007007
         1         1         6         6         4         1     -0.00020618
         1         1         6         6         4         2     -0.00059520
         1         1         6         6         4         3     -0.00014910
         1         1         6         6         4         4     -0.00196042
         1         1         6         6         4         5     -0.00000000
         1         1         6         6         4         6     -0.00082140
         1         1         6         6         4         7     -0.00089143
         1         1         6         6         5         1      0.00000000
         1         1         6         6         5         2      0.00000000
         1         1         6         6         5         3      0.00000000
         1         1         6         6         5         4     -0.00000000
         1         1         6         6         5         5      0.00000391
         1         1         6         6         5         6     -0.00000000
         1         1         6         6         5         7     -0.00000000
         1         1         6         6         6         1     -0.00008710
         1         1         6         6         6         2     -0.00024969
         1         1         6         6         6         3     -0.00006268
         1         1         6         6         6         4     -0.00082140
         1         1         6         6         6         5     -0.00000000
         1         1         6         6         6         6     -0.00035010
         1         1         6         6         6         7     -0.00035105
         1         1         6         6         7         1     -0.00009045
         1         1         6         6         7         2     -0.00026409
         1         1         6         6         7         3     -0.00007007
         1         1         6         6         7         4     -0.00089143
         1         1         6         6         7         5     -0.00000000
         1         1         6         6         7         6     -0.00035105
         1         1         6         6         7         7     -0.00046448
         1         1         7         7         1         1     -0.00001880
         1         1         7         7         1         2     -0.00005979
         1         1         7         7         1         3     -0.00001521
         1         1         7         7         1         4     -0.00020618
         1         1         7         7         1         5     -0.00000000
         1         1         7         7         1         6     -0.00008710
         1         1         7         7         1         7     -0.00009045
         1         1         7         7         2         1     -0.00005979
         1         1         7         7         2         2     -0.00017591
         1         1         7         7         2         3     -0.00004477
         1         1         7         7         2         4     -0.00059520
         1         1         7         7         2         5     -0.00000000
         1         1         7         7         2         6     -0.00024969
         1         1         7         7         2         7     -0.00026409
         1         1         7         7         3         1     -0.00001521
         1         1         7         7         3         2     -0.00004477
         1         1         7         7         3         3     -0.00000785
         1         1         7         7         3         4     -0.00014910
         1         1         7         7         3         5     -0.00000000
         1         1         7         7         3         6     -0.00006268
         1         1         7         7         3         7     -0.00007007
         1         1         7         7         4         1     -0.00020618
         1         1         7         7         4         2     -0.00059520
         1         1         7         7         4         3     -0.00014910
         1         1         7         7         4         4     -0.00196042
         1         1         7         7         4         5      0.00000000
         1         1         7         7         4         6     -0.00082140
         1         1         7         7         4         7     -0.00089143
         1         1         7         7         5         1     -0.00000000
         1         1         7         7         5         2     -0.00000000
         1         1         7         7         5         3     -0.00000000
         1         1         7         7         5         4      0.00000000
         1         1         7         7         5         5      0.00000391
         1         1         7         7         5         6      0.00000000
         1         1         7         7         5         7      0.00000000
         1         1         7         7         6         1     -0.00008710
         1         1         7         7         6         2     -0.00024969
         1         1         7         7         6         3     -0.00006268
         1         1         7         7         6         4     -0.00082140
         1         1         7         7         6         5      0.00000000
         1         1         7         7         6         6     -0.00035010
         1         1         7         7         6         7     -0.00035105
         1         1         7         7         7         1     -0.00009045
         1         1         7         7         7         2     -0.00026409
         1         1         7         7         7         3     -0.00007007
         1         1         7         7         7         4     -0.00089143
         1         1         7         7         7         5      0.00000000
         1         1         7         7         7         6     -0.00035105
         1         1         7         7         7         7     -0.00046448
         1         1         8         8         1         1      0.00000510
         1         1         8         8         1         2      0.00000166
         1         1         8         8         1         3     -0.00000321
         1         1         8         8         2         1      0.00000166
         1         1         8         8         2         2     -0.00000529
         1         1         8         8         2         3      0.00002022
         1         1         8         8         3         1     -0.00000321
         1         1         8         8         3         2      0.00002022
         1         1         8         8         3         3     -0.00004323
         2         1         1         1         1         1     -0.00040848
         2         1         1         1         1         2      0.00058557
         2         1         1         1         1         3      0.00058280
         2         1         1         1         1         4      0.00000000
         2         1         1         1         1         5     -0.00072218
         2         1         1         1         1         6     -0.00109649
         2         1         1         1         1         7     -0.00000000
         2         1         1         1         1         8      0.00102556
         2         1         1         1         1         9     -0.00000000
         2         1         1         1         1        10      0.00015797
         2         1         1         1         1        11     -0.00003169
         2         1         1         1         2         1      0.00058763
         2         1         1         1         2         2     -0.00081803
         2         1         1         1         2         3     -0.00095607
         2         1         1         1         2         4     -0.00000000
         2         1         1         1         2         5      0.00107569
         2         1         1         1         2         6      0.00163140
         2         1         1         1         2         7      0.00000000
         2         1         1         1         2         8     -0.00166411
         2         1         1         1         2         9      0.00000000
         2         1         1         1         2        10     -0.00016469
         2         1         1         1         2        11      0.00024049
         2         1         1         1         3         1      0.00036270
         2         1         1         1         3         2     -0.00063175
         2         1         1         1         3         3      0.00001993
         2         1         1         1         3         4      0.00000000
         2         1         1         1         3         5      0.00053471
         2         1         1         1         3         6      0.00080935
         2         1         1         1         3         7     -0.00000000
         2         1         1         1         3         8     -0.00024012
         2         1         1         1         3         9     -0.00000000
         2         1         1         1         3        10     -0.00009505
         2         1         1         1         3        11     -0.00081066
         2         1         1         1         4         1      0.00000000
         2         1         1         1         4         2     -0.00000000
         2         1         1         1         4         3      0.00000000
         2         1         1         1         4         4     -0.00004763
         2         1         1         1         4         5     -0.00000000
         2         1         1         1         4         6     -0.00000000
         2         1         1         1         4         7     -0.00004754
         2         1         1         1         4         8      0.00000000
         2         1         1         1         4         9     -0.00020445
         2         1         1         1         4        10     -0.00000000
         2         1         1         1         4        11      0.00000000
         2         1         1         1         5         1     -0.00053780
         2         1         1         1         5         2      0.00079202
         2         1         1         1         5         3      0.00069665
         2         1         1         1         5         4     -0.00000000
         2         1         1         1         5         5     -0.00098069
         2         1         1         1         5         6     -0.00147347
         2         1         1         1         5         7      0.00000000
         2         1         1         1         5         8      0.00138042
         2         1         1         1         5         9      0.00000000
         2         1         1         1         5        10     -0.00000990
         2         1         1         1         5        11      0.00003432
         2         1         1         1         6         1     -0.00033970
         2         1         1         1         6         2      0.00048589
         2         1         1         1         6         3      0.00055180
         2         1         1         1         6         4     -0.00000000
         2         1         1         1         6         5     -0.00066414
         2         1         1         1         6         6     -0.00110500
         2         1         1         1         6         7     -0.00000000
         2         1         1         1         6         8      0.00109357
         2         1         1         1         6         9     -0.00000000
         2         1         1         1         6        10      0.00005024
         2         1         1         1         6        11     -0.00000996
         2         1         1         1         7         1     -0.00000000
         2         1         1         1         7         2      0.00000000
         2         1         1         1         7         3     -0.00000000
         2         1         1         1         7         4     -0.00003456
         2         1         1         1         7         5      0.00000000
         2         1         1         1         7         6     -0.00000000
         2         1         1         1         7         7     -0.00007588
         2         1         1         1         7         8      0.00000000
         2         1         1         1         7         9     -0.00013698
         2         1         1         1         7        10      0.00000000
         2         1         1         1         7        11     -0.00000000
         2         1         1         1         8         1      0.00010847
         2         1         1         1         8         2     -0.00027394
         2         1         1         1         8         3      0.00034638
         2         1         1         1         8         4      0.00000000
         2         1         1         1         8         5      0.00013508
         2         1         1         1         8         6      0.00017686
         2         1         1         1         8         7      0.00000000
         2         1         1         1         8         8      0.00033588
         2         1         1         1         8         9      0.00000000
         2         1         1         1         8        10      0.00010059
         2         1         1         1         8        11     -0.00102201
         2         1         1         1         9         1     -0.00000000
         2         1         1         1         9         2      0.00000000
         2         1         1         1         9         3     -0.00000000
         2         1         1         1         9         4     -0.00005880
         2         1         1         1         9         5     -0.00000000
         2         1         1         1         9         6     -0.00000000
         2         1         1         1         9         7     -0.00005950
         2         1         1         1         9         8      0.00000000
         2         1         1         1         9         9     -0.00034293
         2         1         1         1         9        10      0.00000000
         2         1         1         1         9        11     -0.00000000
         2         1         1         1        10         1     -0.00027704
         2         1         1         1        10         2      0.00042550
         2         1         1         1        10         3      0.00032448
         2         1         1         1        10         4     -0.00000000
         2         1         1         1        10         5     -0.00053673
         2         1         1         1        10         6     -0.00071789
         2         1         1         1        10         7      0.00000000
         2         1         1         1        10         8      0.00070613
         2         1         1         1        10         9      0.00000000
         2         1         1         1        10        10     -0.00036281
         2         1         1         1        10        11     -0.00016539
         2         1         1         1        11         1     -0.00019737
         2         1         1         1        11         2      0.00056480
         2         1         1         1        11         3     -0.00106323
         2         1         1         1        11         4      0.00000000
         2         1         1         1        11         5     -0.00010710
         2         1         1         1        11         6      0.00006338
         2         1         1         1        11         7     -0.00000000
         2         1         1         1        11         8     -0.00161146
         2         1         1         1        11         9     -0.00000000
         2         1         1         1        11        10     -0.00040699
         2         1         1         1        11        11      0.00330642
         2         1         2         2         1         1     -0.00045133
         2         1         2         2         1         2     -0.00071026
         2         1         2         2         1         3     -0.00016378
         2         1         2         2         1         4     -0.00150818
         2         1         2         2         1         5      0.00000000
         2         1         2         2         1         6      0.00029186
         2         1         2         2         1         7      0.00049472
         2         1         2         2         2         1     -0.00063782
         2         1         2         2         2         2     -0.00100002
         2         1         2         2         2         3     -0.00022771
         2         1         2         2         2         4     -0.00220878
         2         1         2         2         2         5      0.00000000
         2         1         2         2         2         6      0.00042259
         2         1         2         2         2         7      0.00075016
         2         1         2         2         3         1     -0.00022197
         2         1         2         2         3         2     -0.00032894
         2         1         2         2         3         3     -0.00013205
         2         1         2         2         3         4     -0.00063384
         2         1         2         2         3         5      0.00000000
         2         1         2         2         3         6     -0.00006077
         2         1         2         2         3         7      0.00030465
         2         1         2         2         4         1     -0.00045309
         2         1         2         2         4         2     -0.00074497
         2         1         2         2         4         3     -0.00015414
         2         1         2         2         4         4     -0.00195595
         2         1         2         2         4         5      0.00000000
         2         1         2         2         4         6      0.00039811
         2         1         2         2         4         7      0.00070107
         2         1         2         2         5         1      0.00000000
         2         1         2         2         5         2      0.00000000
         2         1         2         2         5         3      0.00000000
         2         1         2         2         5         4      0.00000000
         2         1         2         2         5         5     -0.00003263
         2         1         2         2         5         6     -0.00000000
         2         1         2         2         5         7     -0.00000000
         2         1         2         2         6         1     -0.00019942
         2         1         2         2         6         2     -0.00026979
         2         1         2         2         6         3     -0.00015645
         2         1         2         2         6         4     -0.00040731
         2         1         2         2         6         5     -0.00000000
         2         1         2         2         6         6     -0.00031597
         2         1         2         2         6         7      0.00028443
         2         1         2         2         7         1      0.00012687
         2         1         2         2         7         2      0.00020940
         2         1         2         2         7         3      0.00006209
         2         1         2         2         7         4      0.00056445
         2         1         2         2         7         5     -0.00000000
         2         1         2         2         7         6     -0.00005542
         2         1         2         2         7         7     -0.00028644
         2         1         3         3         1         1     -0.00045133
         2         1         3         3         1         2     -0.00071026
         2         1         3         3         1         3     -0.00016378
         2         1         3         3         1         4     -0.00150818
         2         1         3         3         1         5     -0.00000000
         2         1         3         3         1         6      0.00029186
         2         1         3         3         1         7      0.00049472
         2         1         3         3         2         1     -0.00063782
         2         1         3         3         2         2     -0.00100002
         2         1         3         3         2         3     -0.00022771
         2         1         3         3         2         4     -0.00220878
         2         1         3         3         2         5     -0.00000000
         2         1         3         3         2         6      0.00042259
         2         1         3         3         2         7      0.00075016
         2         1         3         3         3         1     -0.00022197
         2         1         3         3         3         2     -0.00032894
         2         1         3         3         3         3     -0.00013205
         2         1         3         3         3         4     -0.00063384
         2         1         3         3         3         5     -0.00000000
         2         1         3         3         3         6     -0.00006077
         2         1         3         3         3         7      0.00030465
         2         1         3         3         4         1     -0.00045309
         2         1         3         3         4         2     -0.00074497
         2         1         3         3         4         3     -0.00015414
         2         1         3         3         4         4     -0.00195595
         2         1         3         3         4         5     -0.00000000
         2         1         3         3         4         6      0.00039811
         2         1         3         3         4         7      0.00070107
         2         1         3         3         5         1     -0.00000000
         2         1         3         3         5         2     -0.00000000
         2         1         3         3         5         3     -0.00000000
         2         1         3         3         5         4     -0.00000000
         2         1         3         3         5         5     -0.00003263
         2         1         3         3         5         6      0.00000000
         2         1         3         3         5         7      0.00000000
         2         1         3         3         6         1     -0.00019942
         2         1         3         3         6         2     -0.00026979
         2         1         3         3         6         3     -0.00015645
         2         1         3         3         6         4     -0.00040731
         2         1         3         3         6         5      0.00000000
         2         1         3         3         6         6     -0.00031597
         2         1         3         3         6         7      0.00028443
         2         1         3         3         7         1      0.00012687
         2         1         3         3         7         2      0.00020940
         2         1         3         3         7         3      0.00006209
         2         1         3         3         7         4      0.00056445
         2         1         3         3         7         5      0.00000000
         2         1         3         3         7         6     -0.00005542
         2         1         3         3         7         7     -0.00028644
         2         1         4         4         1         1     -0.00004763
         2         1         4         4         1         2     -0.00004754
         2         1         4         4         1         3     -0.00020445
         2         1         4         4         2         1     -0.00003456
         2         1         4         4         2         2     -0.00007588
         2         1         4         4         2         3     -0.00013698
         2         1         4         4         3         1     -0.00005880
         2         1         4         4         3         2     -0.00005950
         2         1         4         4         3         3     -0.00034293
         2         1         5         5         1         1      0.00014736
         2         1         5         5         1         2     -0.00014862
         2         1         5         5         1         3      0.00000248
         2         1         5         5         1         4      0.00036616
         2         1         5         5         1         5      0.00000000
         2         1         5         5         1         6      0.00005730
         2         1         5         5         1         7      0.00090676
         2         1         5         5         1         8     -0.00000000
[...]
         3         2         5         1         2         5      0.00039752
         3         2         5         1         2         6      0.00033358
         3         2         5         1         2         7     -0.00000000
         3         2         5         1         2         8      0.00036760
         3         2         5         1         2         9     -0.00000000
         3         2         5         1         2        10      0.00023266
         3         2         5         1         2        11     -0.00096511
         3         2         5         1         3         1     -0.00036794
         3         2         5         1         3         2      0.00060321
         3         2         5         1         3         3     -0.00000364
         3         2         5         1         3         4      0.00000000
         3         2         5         1         3         5     -0.00044310
         3         2         5         1         3         6     -0.00035722
         3         2         5         1         3         7     -0.00000000
         3         2         5         1         3         8     -0.00021264
         3         2         5         1         3         9     -0.00000000
         3         2         5         1         3        10     -0.00020543
         3         2         5         1         3        11      0.00064725
         3         2         5         1         4         1     -0.00004969
         3         2         5         1         4         2      0.00022003
         3         2         5         1         4         3     -0.00048220
         3         2         5         1         4         4      0.00000000
         3         2         5         1         4         5     -0.00008251
         3         2         5         1         4         6     -0.00011997
         3         2         5         1         4         7     -0.00000000
         3         2         5         1         4         8     -0.00047319
         3         2         5         1         4         9     -0.00000000
         3         2         5         1         4        10     -0.00013258
         3         2         5         1         4        11      0.00115631
         3         2         5         1         5         1      0.00000000
         3         2         5         1         5         2     -0.00000000
         3         2         5         1         5         3      0.00000000
         3         2         5         1         5         4     -0.00003936
         3         2         5         1         5         5     -0.00000000
         3         2         5         1         5         6      0.00000000
         3         2         5         1         5         7     -0.00001841
         3         2         5         1         5         8     -0.00000000
         3         2         5         1         5         9     -0.00004758
         3         2         5         1         5        10     -0.00000000
         3         2         5         1         5        11     -0.00000000
         3         2         5         1         6         1      0.00085294
         3         2         5         1         6         2     -0.00137973
         3         2         5         1         6         3     -0.00007880
         3         2         5         1         6         4      0.00000000
         3         2         5         1         6         5      0.00104475
         3         2         5         1         6         6      0.00084957
         3         2         5         1         6         7     -0.00000000
         3         2         5         1         6         8      0.00041878
         3         2         5         1         6         9     -0.00000000
         3         2         5         1         6        10      0.00046512
         3         2         5         1         6        11     -0.00151592
         3         2         5         1         7         1      0.00088122
         3         2         5         1         7         2     -0.00115230
         3         2         5         1         7         3     -0.00112840
         3         2         5         1         7         4      0.00000000
         3         2         5         1         7         5      0.00110142
         3         2         5         1         7         6      0.00074848
         3         2         5         1         7         7      0.00000000
         3         2         5         1         7         8     -0.00057957
         3         2         5         1         7         9      0.00000000
         3         2         5         1         7        10      0.00031887
         3         2         5         1         7        11      0.00100871
         3         2         5         1         8         1      0.00000000
         3         2         5         1         8         2      0.00000000
         3         2         5         1         8         3     -0.00000000
         3         2         5         1         8         4      0.00007107
         3         2         5         1         8         5     -0.00000000
         3         2         5         1         8         6      0.00000000
         3         2         5         1         8         7      0.00001696
         3         2         5         1         8         8     -0.00000000
         3         2         5         1         8         9      0.00012895
         3         2         5         1         8        10      0.00000000
         3         2         5         1         8        11     -0.00000000
         3         2         5         1         9         1     -0.00050642
         3         2         5         1         9         2      0.00069562
         3         2         5         1         9         3      0.00051424
         3         2         5         1         9         4      0.00000000
         3         2         5         1         9         5     -0.00061546
         3         2         5         1         9         6     -0.00049164
         3         2         5         1         9         7     -0.00000000
         3         2         5         1         9         8      0.00017039
         3         2         5         1         9         9      0.00000000
         3         2         5         1         9        10     -0.00016024
         3         2         5         1         9        11     -0.00021453
         3         2         5         1        10         1      0.00000000
         3         2         5         1        10         2     -0.00000000
         3         2         5         1        10         3      0.00000000
         3         2         5         1        10         4     -0.00019714
         3         2         5         1        10         5     -0.00000000
         3         2         5         1        10         6      0.00000000
         3         2         5         1        10         7     -0.00014706
         3         2         5         1        10         8     -0.00000000
         3         2         5         1        10         9     -0.00032902
         3         2         5         1        10        10     -0.00000000
         3         2         5         1        10        11     -0.00000000
         3         2         5         1        11         1     -0.00118952
         3         2         5         1        11         2      0.00179246
         3         2         5         1        11         3      0.00103051
         3         2         5         1        11         4     -0.00000000
         3         2         5         1        11         5     -0.00178393
         3         2         5         1        11         6     -0.00129538
         3         2         5         1        11         7      0.00000000
         3         2         5         1        11         8      0.00043262
         3         2         5         1        11         9     -0.00000000
         3         2         5         1        11        10     -0.00103482
         3         2         5         1        11        11     -0.00034089
         3         2         5         1        12         1     -0.00029811
         3         2         5         1        12         2      0.00063182
         3         2         5         1        12         3     -0.00057964
         3         2         5         1        12         4     -0.00000000
         3         2         5         1        12         5     -0.00033391
         3         2         5         1        12         6     -0.00028594
         3         2         5         1        12         7      0.00000000
         3         2         5         1        12         8     -0.00095265
         3         2         5         1        12         9     -0.00000000
         3         2         5         1        12        10     -0.00032508
         3         2         5         1        12        11      0.00331642
         3         2         6         2         1         1     -0.00018701
         3         2         6         2         1         2     -0.00027266
         3         2         6         2         1         3     -0.00006585
         3         2         6         2         1         4     -0.00022863
         3         2         6         2         1         5      0.00000000
         3         2         6         2         1         6     -0.00002548
         3         2         6         2         1         7      0.00006027
         3         2         6         2         2         1     -0.00062281
         3         2         6         2         2         2     -0.00089902
         3         2         6         2         2         3     -0.00023065
         3         2         6         2         2         4     -0.00074238
         3         2         6         2         2         5     -0.00000000
         3         2         6         2         2         6     -0.00011204
         3         2         6         2         2         7      0.00020016
         3         2         6         2         3         1     -0.00016497
         3         2         6         2         3         2     -0.00023889
         3         2         6         2         3         3     -0.00008730
         3         2         6         2         3         4     -0.00019454
         3         2         6         2         3         5     -0.00000000
         3         2         6         2         3         6     -0.00006470
         3         2         6         2         3         7      0.00006540
         3         2         6         2         4         1     -0.00144981
         3         2         6         2         4         2     -0.00213074
         3         2         6         2         4         3     -0.00057522
         3         2         6         2         4         4     -0.00189612
         3         2         6         2         4         5     -0.00000000
         3         2         6         2         4         6     -0.00028832
         3         2         6         2         4         7      0.00055029
         3         2         6         2         5         1     -0.00000000
         3         2         6         2         5         2     -0.00000000
         3         2         6         2         5         3     -0.00000000
         3         2         6         2         5         4     -0.00000000
         3         2         6         2         5         5     -0.00003395
         3         2         6         2         5         6      0.00000000
         3         2         6         2         5         7      0.00000000
         3         2         6         2         6         1     -0.00045670
         3         2         6         2         6         2     -0.00066901
         3         2         6         2         6         3     -0.00009243
         3         2         6         2         6         4     -0.00062472
         3         2         6         2         6         5     -0.00000000
         3         2         6         2         6         6      0.00004708
         3         2         6         2         6         7      0.00011856
         3         2         6         2         7         1     -0.00065439
         3         2         6         2         7         2     -0.00100112
         3         2         6         2         7         3     -0.00044801
         3         2         6         2         7         4     -0.00094967
         3         2         6         2         7         5     -0.00000000
         3         2         6         2         7         6     -0.00050960
         3         2         6         2         7         7      0.00037563
         3         2         7         3         1         1     -0.00018701
         3         2         7         3         1         2     -0.00027266
         3         2         7         3         1         3     -0.00006585
         3         2         7         3         1         4     -0.00022863
         3         2         7         3         1         5     -0.00000000
         3         2         7         3         1         6     -0.00002548
         3         2         7         3         1         7      0.00006027
         3         2         7         3         2         1     -0.00062281
         3         2         7         3         2         2     -0.00089902
         3         2         7         3         2         3     -0.00023065
         3         2         7         3         2         4     -0.00074238
         3         2         7         3         2         5      0.00000000
         3         2         7         3         2         6     -0.00011204
         3         2         7         3         2         7      0.00020016
         3         2         7         3         3         1     -0.00016497
         3         2         7         3         3         2     -0.00023889
         3         2         7         3         3         3     -0.00008730
         3         2         7         3         3         4     -0.00019454
         3         2         7         3         3         5      0.00000000
         3         2         7         3         3         6     -0.00006470
         3         2         7         3         3         7      0.00006540
         3         2         7         3         4         1     -0.00144981
         3         2         7         3         4         2     -0.00213074
         3         2         7         3         4         3     -0.00057522
         3         2         7         3         4         4     -0.00189612
         3         2         7         3         4         5      0.00000000
         3         2         7         3         4         6     -0.00028832
         3         2         7         3         4         7      0.00055029
         3         2         7         3         5         1      0.00000000
         3         2         7         3         5         2      0.00000000
         3         2         7         3         5         3      0.00000000
         3         2         7         3         5         4      0.00000000
         3         2         7         3         5         5     -0.00003395
         3         2         7         3         5         6     -0.00000000
         3         2         7         3         5         7     -0.00000000
         3         2         7         3         6         1     -0.00045670
         3         2         7         3         6         2     -0.00066901
         3         2         7         3         6         3     -0.00009243
         3         2         7         3         6         4     -0.00062472
         3         2         7         3         6         5      0.00000000
         3         2         7         3         6         6      0.00004708
         3         2         7         3         6         7      0.00011856
         3         2         7         3         7         1     -0.00065439
         3         2         7         3         7         2     -0.00100112
         3         2         7         3         7         3     -0.00044801
         3         2         7         3         7         4     -0.00094967
         3         2         7         3         7         5      0.00000000
         3         2         7         3         7         6     -0.00050960
         3         2         7         3         7         7      0.00037563
         3         2         8         4         1         1     -0.00003936
         3         2         8         4         1         2     -0.00001841
         3         2         8         4         1         3     -0.00004758
         3         2         8         4         2         1      0.00007107
         3         2         8         4         2         2      0.00001696
         3         2         8         4         2         3      0.00012895
         3         2         8         4         3         1     -0.00019714
         3         2         8         4         3         2     -0.00014706
         3         2         8         4         3         3     -0.00032902


 RESULTS
 =======

  Reference energy                    -14.871136112507

  Correlated core orbitals:             1.1       1.5
  Orbital energies:                    -2.4529   -2.4525

  CISD core-core energy                -0.023656658700
  CISD core-valence energy             -0.002296023341
  CISD valence correlation energy      -0.031542906003

  CISD singlet pair energy             -0.056847074646
  CISD triplet pair energy             -0.000594581378
  CISD correlation energy              -0.057495588044

 !CISD total energy                   -14.928631700551

 Timing summary (sec):

 STEP                 CPU(USER)    SYS     CPU(TOT)    WALL
 CCSD iterations         0.20      0.03      0.23      0.22

 Program statistics:

 Available memory in ccsd:                39999164
 Min. memory needed in ccsd:                 14528
 Max. memory used in ccsd:                   15848
 Max. memory used in cckext:                 44671 (31 integral passes)



 **********************************************************************************************************************************
 DATASETS  * FILE   NREC   LENGTH (MB)   RECORD NAMES
              1      20       31.06       500      700      610      900      950      970     1000      129      960     1100   
                                          VAR     GEOM    BASINP   SYMINP    ZMAT    AOBASIS   BASIS     P2S    ABASIS      S 
                                         1400     1410     1200     1210     1080     1600     1650     1300     1700     1380   
                                           T        V       H0       H01     AOSYM     SMH    MOLCAS    ERIS     OPER     JKOP   

              3       5       14.79       500      610      700     1000     2100   
                                          VAR    BASINP    GEOM     BASIS     RHF  

 PROGRAMS   *        TOTAL      CISD       INT   RESTART
 CPU TIMES  *         0.72      0.27      0.33      0.02
 REAL TIME  *         0.92 SEC
 DISK USED  *        51.14 MB
 **********************************************************************************************************************************
 Molecular orbitals read from record     2100.3  Type=RHF/CANONICAL (state 1.1)
 Occupation numbers read from record     2100.3  Type=RHF/RHF (state 1.1)
 Orbital energies read from record       2100.3  Type=RHF/CANONICAL (state 1.1)
 Redundancy group numbers read from rec  2100.3  Type=RHF/RHF (state 1.1)

 CISD/cc-pVTZ energy=    -14.928631700551

            CISD
    -14.92863170
 **********************************************************************************************************************************
 Molpro calculation terminated
