
 Primary working directories    : /scr/yuriaoto/job.022757/molpro.t96PIMVWtH
 Secondary working directories  : /scr/yuriaoto/job.022757/molpro.t96PIMVWtH
 Wavefunction directory         : /scr/yuriaoto/job.022757/
 Main file repository           : /scr/yuriaoto/job.022757/molpro.t96PIMVWtH/

 id        : yuriaoto

 Nodes             nprocs
 t-rex.ufabc.int.br    1

 Using customized tuning parameters: mindgm=8; mindgv=16; mindgc=1; mindgr=1; noblas=0; minvec=7
 default implementation of scratch files=df  


 Variables initialized (933), CPU time= 0.00 sec
 ***,
 memory,40,m
 gprint,orbital=15,basis
 gthresh,thrprint=0
 file,3,wfu.dat,new
 
 r = 5.0
 basis = cc-pVTZ
 
 symmetry,x,y,z
 geom={Li1;Li2,Li1,r}
 
 {rhf
 wf,6,1,0
 orbital,2100.3
 }
 
 {put,xml,orbitals.xml; nosort; novariables}
 
 Commands  initialized (760), CPU time= 0.01 sec, 617 directives.
 Default parameters read. Elapsed time= 0.04 sec

 Checking input...
 Passed
1


                                         ***  PROGRAM SYSTEM MOLPRO  ***
                                       Copyright, TTI GmbH Stuttgart, 2015
                                    Version 2019.2 linked Abr  7 2019 15:10:35


 **********************************************************************************************************************************
 LABEL *                                                                                 
  64 bit serial version                                                                  DATE: 10-Feb-20          TIME: 10:55:45  
 **********************************************************************************************************************************

 SHA1:             3a8a58c585c929645742fb5a1b7541a4ad1da699
 **********************************************************************************************************************************


 THRESHOLDS:

 ZERO    =  1.00D-12  ONEINT  =  1.00D-12  TWOINT  =  1.00D-11  PREFAC  =  1.00D-14  XXXXXX  =  1.00D-09  EORDER  =  1.00D-04
 ENERGY  =  0.00D+00  ETEST   =  0.00D+00  EDENS   =  0.00D+00  THRDEDEF=  1.00D-06  GRADIENT=  1.00D-02  STEP    =  1.00D-03
 ORBITAL =  1.00D-05  CIVEC   =  1.00D-05  COEFF   =  1.00D-04  PRINTCI =  5.00D-02  PUNCHCI =  9.90D+01  OPTGRAD =  3.00D-04
 OPTENERG=  1.00D-06  OPTSTEP =  3.00D-04  THRGRAD =  1.00D-10  COMPRESS=  1.00D-11  VARMIN  =  1.00D-07  VARMAX  =  1.00D-03
 THRDOUB =  0.00D+00  THRDIV  =  1.00D-05  THRRED  =  1.00D-07  THRPSP  =  1.00D+00  THRDC   =  1.00D-10  THRCS   =  1.00D-10
 THRNRM  =  1.00D-08  THREQ   =  0.00D+00  THRDE   =  1.00D+00  THRREF  =  1.00D-05  SPARFAC =  1.00D+00  THRDLP  =  1.00D-07
 THRDIA  =  1.00D-10  THRDLS  =  1.00D-07  THRGPS  =  0.00D+00  THRKEX  =  0.00D+00  THRDIS  =  2.00D-01  THRVAR  =  1.00D-10
 THRLOC  =  1.00D-06  THRGAP  =  1.00D-06  THRLOCT = -1.00D+00  THRGAPT = -1.00D+00  THRORB  =  1.00D-06  THRMLTP =  0.00D+00
 THRCPQCI=  1.00D-10  KEXTA   =  0.00D+00  THRCOARS=  0.00D+00  SYMTOL  =  1.00D-06  GRADTOL =  1.00D-06  THROVL  =  1.00D-08
 THRORTH =  1.00D-08  GRID    =  1.00D-06  GRIDMAX =  1.00D-03  DTMAX   =  0.00D+00  THROCCDE=  1.00D-01  THROCCDE=  1.00D-01
 THRPRINT=  0.00D+00


 Variable memory set to   40000000 words,  buffer space 



 Permanent file  3  wfu.dat  assigned.  Implementation=df  



 **********************************************************************************************************************************
 DATASETS  * FILE   NREC   LENGTH (MB)   RECORD NAMES
              3       1        0.03       500   
                                          VAR  

 PROGRAMS   *        TOTAL      FILE
 CPU TIMES  *         0.10      0.00
 REAL TIME  *         0.11 SEC
 DISK USED  *         0.09 MB
 **********************************************************************************************************************************
 SETTING R              =         5.00000000                                  
 SETTING BASIS          =    CC-PVTZ
 ZSYMEL=X  Y  Z  



 Recomputing integrals since basis changed


 Using spherical harmonics

 Library entry LI     S cc-pVTZ              selected for orbital group  1
 Library entry LI     P cc-pVTZ              selected for orbital group  1
 Library entry LI     D cc-pVTZ              selected for orbital group  1
 Library entry LI     F cc-pVTZ              selected for orbital group  1


 PROGRAM * SEWARD (Integral evaluation for generally contracted gaussian basis sets)     Author: Roland Lindh, 1990

 Geometry written to block  1 of record 700

 Orientation using atomic masses  
 Molecule type: Linear
 User-specified symmetry elements: X,Y,Z
 Symmetry elements: X,Y,Z
 Rotational constants:      20.8009354     20.8009354      0.0000000 GHz  (calculated with average atomic masses)

 Point group  D2h 



 ATOMIC COORDINATES

 NR  ATOM    CHARGE       X              Y              Z

   1  LI1     3.00    0.000000000    0.000000000   -2.500000000
   2  LI2     3.00    0.000000000    0.000000000    2.500000000

 Bond lengths in Bohr (Angstrom)

 1-2  5.000000000
     ( 2.645886055)


 BASIS DATA

   Nr Sym  Nuc  Type         Exponents   Contraction coefficients

    1.1 Ag    1  1s        5988.000000     0.000133   -0.000021    0.000000    0.000000
    2.1 Ag    2  1s         898.900000     0.001025   -0.000161    0.000000    0.000000
    3.1 Ag                  205.900000     0.005272   -0.000820    0.000000    0.000000
    4.1 Ag                   59.240000     0.020929   -0.003326    0.000000    0.000000
                             19.870000     0.066340   -0.010519    0.000000    0.000000
                              7.406000     0.165775   -0.028097    0.000000    0.000000
                              2.930000     0.315038   -0.055936    0.000000    0.000000
                              1.189000     0.393523   -0.099237    0.000000    0.000000
                              0.479800     0.190870   -0.112189    0.000000    0.000000
                              0.075090     0.005414    0.567889    1.000000    0.000000
                              0.028320    -0.001328    0.530382    0.000000    1.000000
    5.1 Ag    1  2pz          3.266000     0.008630    0.000000    0.000000
    6.1 Ag    2 -2pz          0.651100     0.047538    0.000000    0.000000
    7.1 Ag                    0.169600     0.209772    0.000000    0.000000
                              0.055780     0.528522    1.000000    0.000000
                              0.020500     0.382744    0.000000    1.000000
    8.1 Ag    1  3d0          0.190000     1.000000
              2  3d0   
    9.1 Ag    1  3d2+         0.190000     1.000000
              2  3d2+  
   10.1 Ag    1  3d0          0.072500     1.000000
              2  3d0   
   11.1 Ag    1  3d2+         0.072500     1.000000
              2  3d2+  
   12.1 Ag    1  4f0          0.127000     1.000000
              2 -4f0   
   13.1 Ag    1  4f2+         0.127000     1.000000
              2 -4f2+  
    1.2 B3u   1  2px          3.266000     0.008630    0.000000    0.000000
    2.2 B3u   2  2px          0.651100     0.047538    0.000000    0.000000
    3.2 B3u                   0.169600     0.209772    0.000000    0.000000
                              0.055780     0.528522    1.000000    0.000000
                              0.020500     0.382744    0.000000    1.000000
    4.2 B3u   1  3d1+         0.190000     1.000000
              2 -3d1+  
    5.2 B3u   1  3d1+         0.072500     1.000000
              2 -3d1+  
    6.2 B3u   1  4f1+         0.127000     1.000000
              2  4f1+  
    7.2 B3u   1  4f3+         0.127000     1.000000
              2  4f3+  
    1.3 B2u   1  2py          3.266000     0.008630    0.000000    0.000000
    2.3 B2u   2  2py          0.651100     0.047538    0.000000    0.000000
    3.3 B2u                   0.169600     0.209772    0.000000    0.000000
                              0.055780     0.528522    1.000000    0.000000
                              0.020500     0.382744    0.000000    1.000000
    4.3 B2u   1  3d1-         0.190000     1.000000
              2 -3d1-  
    5.3 B2u   1  3d1-         0.072500     1.000000
              2 -3d1-  
    6.3 B2u   1  4f1-         0.127000     1.000000
              2  4f1-  
    7.3 B2u   1  4f3-         0.127000     1.000000
              2  4f3-  
    1.4 B1g   1  3d2-         0.190000     1.000000
              2  3d2-  
    2.4 B1g   1  3d2-         0.072500     1.000000
              2  3d2-  
    3.4 B1g   1  4f2-         0.127000     1.000000
              2 -4f2-  
    1.5 B1u   1  1s        5988.000000     0.000133   -0.000021    0.000000    0.000000
    2.5 B1u   2 -1s         898.900000     0.001025   -0.000161    0.000000    0.000000
    3.5 B1u                 205.900000     0.005272   -0.000820    0.000000    0.000000
    4.5 B1u                  59.240000     0.020929   -0.003326    0.000000    0.000000
                             19.870000     0.066340   -0.010519    0.000000    0.000000
                              7.406000     0.165775   -0.028097    0.000000    0.000000
                              2.930000     0.315038   -0.055936    0.000000    0.000000
                              1.189000     0.393523   -0.099237    0.000000    0.000000
                              0.479800     0.190870   -0.112189    0.000000    0.000000
                              0.075090     0.005414    0.567889    1.000000    0.000000
                              0.028320    -0.001328    0.530382    0.000000    1.000000
    5.5 B1u   1  2pz          3.266000     0.008630    0.000000    0.000000
    6.5 B1u   2  2pz          0.651100     0.047538    0.000000    0.000000
    7.5 B1u                   0.169600     0.209772    0.000000    0.000000
                              0.055780     0.528522    1.000000    0.000000
                              0.020500     0.382744    0.000000    1.000000
    8.5 B1u   1  3d0          0.190000     1.000000
              2 -3d0   
    9.5 B1u   1  3d2+         0.190000     1.000000
              2 -3d2+  
   10.5 B1u   1  3d0          0.072500     1.000000
              2 -3d0   
   11.5 B1u   1  3d2+         0.072500     1.000000
              2 -3d2+  
   12.5 B1u   1  4f0          0.127000     1.000000
              2  4f0   
   13.5 B1u   1  4f2+         0.127000     1.000000
              2  4f2+  
    1.6 B2g   1  2px          3.266000     0.008630    0.000000    0.000000
    2.6 B2g   2 -2px          0.651100     0.047538    0.000000    0.000000
    3.6 B2g                   0.169600     0.209772    0.000000    0.000000
                              0.055780     0.528522    1.000000    0.000000
                              0.020500     0.382744    0.000000    1.000000
    4.6 B2g   1  3d1+         0.190000     1.000000
              2  3d1+  
    5.6 B2g   1  3d1+         0.072500     1.000000
              2  3d1+  
    6.6 B2g   1  4f1+         0.127000     1.000000
              2 -4f1+  
    7.6 B2g   1  4f3+         0.127000     1.000000
              2 -4f3+  
    1.7 B3g   1  2py          3.266000     0.008630    0.000000    0.000000
    2.7 B3g   2 -2py          0.651100     0.047538    0.000000    0.000000
    3.7 B3g                   0.169600     0.209772    0.000000    0.000000
                              0.055780     0.528522    1.000000    0.000000
                              0.020500     0.382744    0.000000    1.000000
    4.7 B3g   1  3d1-         0.190000     1.000000
              2  3d1-  
    5.7 B3g   1  3d1-         0.072500     1.000000
              2  3d1-  
    6.7 B3g   1  4f1-         0.127000     1.000000
              2 -4f1-  
    7.7 B3g   1  4f3-         0.127000     1.000000
              2 -4f3-  
    1.8 Au    1  3d2-         0.190000     1.000000
              2 -3d2-  
    2.8 Au    1  3d2-         0.072500     1.000000
              2 -3d2-  
    3.8 Au    1  4f2-         0.127000     1.000000
              2  4f2-  

 NUCLEAR CHARGE:                    6
 NUMBER OF PRIMITIVE AOS:          96
 NUMBER OF SYMMETRY AOS:           86
 NUMBER OF CONTRACTIONS:           60   (   13Ag  +    7B3u +    7B2u +    3B1g +   13B1u +    7B2g +    7B3g +    3Au  )
 NUMBER OF CORE ORBITALS:           2   (    1Ag  +    0B3u +    0B2u +    0B1g +    1B1u +    0B2g +    0B3g +    0Au  )
 NUMBER OF VALENCE ORBITALS:        8   (    2Ag  +    1B3u +    1B2u +    0B1g +    2B1u +    1B2g +    1B3g +    0Au  )


 NUCLEAR REPULSION ENERGY    1.80000000

 EXTRA SYMMETRY OF AOS IN SYMMETRY 1:   1 1 1 1 1 1 1 1 2 1   2 1 2
 EXTRA SYMMETRY OF AOS IN SYMMETRY 2:   1 1 1 1 1 1 2
 EXTRA SYMMETRY OF AOS IN SYMMETRY 3:   1 1 1 1 1 1 2
 EXTRA SYMMETRY OF AOS IN SYMMETRY 5:   1 1 1 1 1 1 1 1 2 1   2 1 2
 EXTRA SYMMETRY OF AOS IN SYMMETRY 6:   1 1 1 1 1 1 2
 EXTRA SYMMETRY OF AOS IN SYMMETRY 7:   1 1 1 1 1 1 2

 Eigenvalues of metric

         1 0.105E-02 0.623E-02 0.554E-01 0.144E+00 0.376E+00 0.389E+00 0.852E+00 0.121E+01
         2 0.163E-01 0.202E+00 0.443E+00 0.996E+00 0.120E+01 0.217E+01 0.466E+01
         3 0.163E-01 0.202E+00 0.443E+00 0.996E+00 0.120E+01 0.217E+01 0.466E+01
         4 0.376E+00 0.121E+01 0.236E+01
         5 0.953E-03 0.131E-02 0.820E-02 0.163E-01 0.171E+00 0.188E+00 0.335E+00 0.399E+00
         6 0.798E-02 0.188E-01 0.958E-01 0.281E+00 0.796E+00 0.128E+01 0.183E+01
         7 0.798E-02 0.188E-01 0.958E-01 0.281E+00 0.796E+00 0.128E+01 0.183E+01
         8 0.171E+00 0.399E+00 0.149E+01


 Contracted 2-electron integrals neglected if value below      1.0D-11
 AO integral compression algorithm  1   Integral accuracy      1.0D-11

     1.835 MB (compressed) written to integral file ( 55.5%)


 NUMBER OF SORTED TWO-ELECTRON INTEGRALS:     230799.     BUFFER LENGTH:  32768
 NUMBER OF SEGMENTS:   1  SEGMENT LENGTH:     230799      RECORD LENGTH: 524288

 Memory used in sort:       0.79 MW

 SORT1 READ      450560. AND WROTE      192195. INTEGRALS IN      1 RECORDS. CPU TIME:     0.01 SEC, REAL TIME:     0.02 SEC
 SORT2 READ      192195. AND WROTE      230799. INTEGRALS IN      7 RECORDS. CPU TIME:     0.09 SEC, REAL TIME:     0.10 SEC

 FILE SIZES:   FILE 1:    31.9 MBYTE,  FILE 4:     4.2 MBYTE,   TOTAL:     36.1 MBYTE

 OPERATOR DM      FOR CENTER  0  COORDINATES:    0.000000    0.000000    0.000000


 **********************************************************************************************************************************
 DATASETS  * FILE   NREC   LENGTH (MB)   RECORD NAMES
              1      19       31.01       500      610      700      900      950      970     1000      129      960     1100   
                                          VAR    BASINP    GEOM    SYMINP    ZMAT    AOBASIS   BASIS     P2S    ABASIS      S 
                                         1400     1410     1200     1210     1080     1600     1650     1300     1700   
                                           T        V       H0       H01     AOSYM     SMH    MOLCAS    ERIS     OPER   

              3       4       12.29       500      610      700     1000   
                                          VAR    BASINP    GEOM     BASIS   

 PROGRAMS   *        TOTAL       INT      FILE
 CPU TIMES  *         0.53      0.42      0.00
 REAL TIME  *         0.67 SEC
 DISK USED  *        48.64 MB
 **********************************************************************************************************************************


 PROGRAM * RHF-SCF (CLOSED SHELL)       Authors: W. Meyer, H.-J. Werner


 NUMBER OF ELECTRONS:       3+    3-    SPACE SYMMETRY=1    SPIN SYMMETRY: Singlet 
 CONVERGENCE THRESHOLDS:    1.00E-05 (Density)    1.00E-07 (Energy)
 MAX. NUMBER OF ITERATIONS:       60
 INTERPOLATION TYPE:            DIIS
 INTERPOLATION STEPS:              2 (START)      1 (STEP)
 LEVEL SHIFTS:                  0.00 (CLOSED)  0.00 (OPEN) 



 Orbital guess generated from atomic densities. Full valence occupancy:    2   0   0   0   2   0   0   0


 Molecular orbital dump at record        2100.3

 Initial occupancy:   2   0   0   0   1   0   0   0

 ITERATION    DDIFF          GRAD             ENERGY        2-EL.EN.            DIPOLE MOMENTS         DIIS   ORB.
    1      0.000D+00      0.000D+00       -14.86959896     12.900813    0.00000    0.00000    0.00000    0    start
    2      0.000D+00      0.301D-02       -14.87085275     12.960384    0.00000    0.00000    0.00000    1    diag
    3      0.127D-01      0.114D-02       -14.87112874     12.991795    0.00000    0.00000    0.00000    2    diag
    4      0.813D-02      0.136D-03       -14.87113582     12.992111    0.00000    0.00000    0.00000    3    diag
    5      0.109D-02      0.265D-04       -14.87113611     12.991713    0.00000    0.00000    0.00000    4    diag
    6      0.241D-03      0.237D-05       -14.87113611     12.991662    0.00000    0.00000    0.00000    5    diag
    7      0.289D-04      0.329D-06       -14.87113611     12.991671    0.00000    0.00000    0.00000    6    diag
    8      0.325D-05      0.485D-07       -14.87113611     12.991672    0.00000    0.00000    0.00000    0    orth

 Final occupancy:   2   0   0   0   1   0   0   0

 !RHF STATE  1.1 Energy               -14.871136112507
 Nuclear energy                         1.80000000
 One-electron energy                  -23.16697205
 Two-electron energy                    6.49583594
 Virial quotient                       -0.99854475
 !RHF STATE  1.1 Dipole moment          0.00000000     0.00000000     0.00000000
 Dipole moment /Debye                   0.00000000     0.00000000     0.00000000

 MOLECULAR ORBITALS
 ==================

   Orb  Occ    Energy       Coefficients

                            1 1s      1 1s      1 1s      1 1s      1 2pz     1 2pz     1 2pz     1 3d0     1 3d2+    1 3d0  
                            1 3d2+    1 4f0     1 4f2+ 

   1.1   2    -2.4529     1.001441  0.009059 -0.013344 -0.000060 -0.029356  0.023980  0.010171 -0.000138 -0.000000  0.005674
                          0.000000  0.002559 -0.000000

   2.1   2    -0.1822    -0.011436  0.979459 -0.145949 -0.114835  0.360880 -0.109416 -0.121134  0.007155  0.000000  0.004658
                          0.000000  0.001668 -0.000000

   3.1   0     0.0385     0.014220  0.230774  0.242400 -1.054499  0.656520 -0.433851  1.172455 -0.005814  0.000000 -0.032320
                          0.000000 -0.022097 -0.000000

   4.1   0     0.1070    -0.031439 -0.580798 -1.121993  1.131927 -0.996576 -0.042606  2.048624 -0.089378 -0.000000  0.521392
                          0.000000  0.126372 -0.000000

   5.1   0     0.1453     0.094007  1.201670  1.483467 -2.226668  0.188349 -1.221028  0.478628  0.051884 -0.000000 -0.210887
                          0.000000 -0.172829  0.000000

   6.1   0     0.2013     0.000000  0.000000 -0.000000 -0.000000  0.000000  0.000000 -0.000000  0.000000 -0.157583 -0.000000
                          0.945915  0.000000 -0.054870

   7.1   0     0.2958    -0.008976  0.067605 -2.154674  0.957512  0.650261 -0.131082  0.822835 -0.246584  0.000000  1.962931
                         -0.000000  0.124704  0.000000

   8.1   0     0.4888     0.028431  0.212934  0.663524 -0.568873  4.024917 -3.395784 -1.190068  0.027037 -0.000000 -0.651541
                          0.000000  0.479247 -0.000000

   9.1   0     0.5428    -0.000000  0.000000 -0.000000  0.000000 -0.000000  0.000000  0.000000 -0.000000  0.096569  0.000000
                         -0.204129  0.000000  0.848486

  10.1   0     0.6701    -0.091752  0.844551 -3.993859  1.520192 -7.258680  6.612040  2.867074 -0.629519 -0.000000  2.626002
                          0.000000  1.340857 -0.000000

  11.1   0     0.7101     0.000000  0.000000 -0.000000 -0.000000 -0.000000  0.000000  0.000000 -0.000000  1.318950  0.000000
                         -0.674257  0.000000 -0.146950

  12.1   0     0.7608    -0.191095 -0.688066  0.496681  0.420974 -1.889250  1.444279  0.199988  1.208165  0.000000 -0.816470
                         -0.000000  0.177378 -0.000000

  13.1   0     3.0224     5.841704 23.418654-13.804638-12.016308 -2.778920  2.498187  1.093244 -0.143100 -0.000000  1.003407
                          0.000000  0.556126  0.000000

                            1 2px     1 2px     1 2px     1 3d1+    1 3d1+    1 4f1+    1 4f3+ 

   1.2   0     0.0272     0.504290 -0.261799  0.518304  0.004568 -0.009124  0.009301 -0.000000

   2.2   0     0.1160     0.384505  1.007208 -1.086765  0.011749 -0.045581 -0.023448 -0.000000

   3.2   0     0.2398     0.251097 -0.672575  0.127839 -0.157079  1.059546 -0.070901  0.000000

   4.2   0     0.4570     5.084490 -3.950790 -1.440406 -0.026483  0.016634  0.293673 -0.000000

   5.2   0     0.5109     0.000000 -0.000000 -0.000000 -0.000000 -0.000000  0.000000  0.911188

   6.2   0     0.6566    -2.072062  1.452932  0.696108  0.863275 -0.493271  0.497961 -0.000000

   7.2   0     0.7575    -2.716391  1.475941  1.076104 -1.119484  0.935474  1.073631  0.000000

                            1 2py     1 2py     1 2py     1 3d1-    1 3d1-    1 4f1-    1 4f3- 

   1.3   0     0.0272     0.504290 -0.261799  0.518304  0.004568 -0.009124  0.009301 -0.000000

   2.3   0     0.1160     0.384505  1.007208 -1.086765  0.011749 -0.045581 -0.023448 -0.000000

   3.3   0     0.2398     0.251097 -0.672575  0.127839 -0.157079  1.059546 -0.070901  0.000000

   4.3   0     0.4570     5.084490 -3.950790 -1.440406 -0.026483  0.016634  0.293673 -0.000000

   5.3   0     0.5109     0.000000 -0.000000 -0.000000  0.000000 -0.000000  0.000000  0.911188

   6.3   0     0.6566    -2.072062  1.452932  0.696108  0.863275 -0.493271  0.497961 -0.000000

   7.3   0     0.7575    -2.716391  1.475941  1.076104 -1.119484  0.935474  1.073631  0.000000

                            1 3d2-    1 3d2-    1 4f2- 

   1.4   0     0.2013    -0.157583  0.945915 -0.054870

   2.4   0     0.5428     0.096569 -0.204129  0.848486

   3.4   0     0.7101     1.318950 -0.674257 -0.146950

                            1 1s      1 1s      1 1s      1 1s      1 2pz     1 2pz     1 2pz     1 3d0     1 3d2+    1 3d0  
                            1 3d2+    1 4f0     1 4f2+ 

   1.5   2    -2.4525     0.997982 -0.010680 -0.001479  0.004569 -0.032440  0.016191  0.011749 -0.002850 -0.000000 -0.001317
                         -0.000000 -0.001999 -0.000000

   2.5   0     0.0067     0.001133 -0.497754  0.129205  1.843209  0.249113  0.303182  1.091548 -0.015137 -0.000000  0.102214
                          0.000000  0.003001  0.000000

   3.5   0     0.0642     0.014649  0.624422  0.142367 10.072461 -0.173874  2.004899  3.550453 -0.054034 -0.000000  0.673369
                          0.000000  0.035656  0.000000

   4.5   0     0.1557     0.111765  0.183488  1.661928 16.361933  0.395675  7.271711  2.761905  0.011788 -0.000000  1.591688
                          0.000000  0.186513  0.000000

   5.5   0     0.2346    -0.058908 -1.089097  0.287584  8.783623  0.134732  1.778405  2.055629 -0.193476 -0.000000  1.555137
                          0.000000 -0.069425 -0.000000

   6.5   0     0.2604     0.000000  0.000000 -0.000000 -0.000000  0.000000 -0.000000 -0.000000  0.000000 -0.204823 -0.000000
                          1.445959  0.000000 -0.009365

   7.5   0     0.3993     0.352175  2.963508  5.876064 11.817536 -1.742601 11.827450  2.404583  0.135624 -0.000000  3.245413
                          0.000000  0.291877  0.000000

   8.5   0     0.5184    -0.041579 -1.156715 -1.824968 -5.529441 -2.709659 -1.995660 -0.153267  0.695718 -0.000000 -1.647495
                          0.000000  0.506431  0.000000

   9.5   0     0.6967     0.000000  0.000000  0.000000  0.000000  0.000000  0.000000 -0.000000 -0.000000 -0.570763  0.000000
                          1.337259  0.000000  1.560881

  10.5   0     0.7497     0.076522  0.731491  5.267908  6.782684  4.284586  3.573899 -0.475631 -0.513716  0.000000  2.860273
                         -0.000000  1.459826 -0.000000

  11.5   0     0.7718    -0.000000 -0.000000  0.000000 -0.000000 -0.000000 -0.000000  0.000000  0.000000  1.281744 -0.000000
                         -0.470779 -0.000000  0.698820

  12.5   0     1.0135     0.216568  1.753447  2.280062 -2.167773  7.325486 -2.606317 -3.304288  1.897029  0.000000 -0.012013
                         -0.000000  0.628797 -0.000000

  13.5   0     3.1658     6.262079 25.558319 -9.010380 -8.074501  1.853178  4.546466 -0.076472  0.166063  0.000000  1.724924
                         -0.000000  0.227645 -0.000000

                            1 2px     1 2px     1 2px     1 3d1+    1 3d1+    1 4f1+    1 4f3+ 

   1.6   0     0.0559     0.353501 -0.686728  2.216955 -0.027115 -0.173431 -0.064229 -0.000000

   2.6   0     0.1631     0.399917  1.748819 -1.962236  0.037390  0.031528  0.139210  0.000000

   3.6   0     0.3265     0.039100  4.485271 -0.033571 -0.190407  4.100489  0.516965 -0.000000

   4.6   0     0.4606     5.032376 -6.704464 -0.692802 -0.245144 -1.792886 -0.867585 -0.000000

   5.6   0     0.5913     0.000000  0.000000 -0.000000  0.000000  0.000000  0.000000  1.121147

   6.6   0     0.7155     2.653736  3.611441 -1.141782 -0.443196  4.621461  2.104223 -0.000000

   7.6   0     0.9609     2.792849  1.534956 -1.667626  1.743148  1.752049  1.662826 -0.000000

                            1 2py     1 2py     1 2py     1 3d1-    1 3d1-    1 4f1-    1 4f3- 

   1.7   0     0.0559     0.353501 -0.686728  2.216955 -0.027115 -0.173431 -0.064229 -0.000000

   2.7   0     0.1631     0.399917  1.748819 -1.962236  0.037390  0.031528  0.139210 -0.000000

   3.7   0     0.3265     0.039100  4.485271 -0.033571 -0.190407  4.100489  0.516965  0.000000

   4.7   0     0.4606     5.032376 -6.704464 -0.692802 -0.245144 -1.792886 -0.867585 -0.000000

   5.7   0     0.5913     0.000000 -0.000000 -0.000000 -0.000000 -0.000000 -0.000000  1.121147

   6.7   0     0.7155     2.653736  3.611441 -1.141782 -0.443196  4.621461  2.104223  0.000000

   7.7   0     0.9609     2.792849  1.534956 -1.667626  1.743148  1.752049  1.662826  0.000000

                            1 3d2-    1 3d2-    1 4f2- 

   1.8   0     0.2604    -0.204823  1.445959 -0.009365

   2.8   0     0.6967    -0.570763  1.337259  1.560881

   3.8   0     0.7718     1.281744 -0.470779  0.698820


 HOMO      2.1    -0.182243 =      -4.9591eV
 LUMO      2.5     0.006715 =       0.1827eV
 LUMO-HOMO         0.188958 =       5.1418eV


 **********************************************************************************************************************************
 DATASETS  * FILE   NREC   LENGTH (MB)   RECORD NAMES
              1      19       31.01       500      610      700      900      950      970     1000      129      960     1100   
                                          VAR    BASINP    GEOM    SYMINP    ZMAT    AOBASIS   BASIS     P2S    ABASIS      S 
                                         1400     1410     1200     1210     1080     1600     1650     1300     1700   
                                           T        V       H0       H01     AOSYM     SMH    MOLCAS    ERIS     OPER   

              3       5       14.79       500      610      700     1000     2100   
                                          VAR    BASINP    GEOM     BASIS     RHF  

 PROGRAMS   *        TOTAL   RHF-SCF       INT      FILE
 CPU TIMES  *         0.64      0.11      0.42      0.00
 REAL TIME  *         0.81 SEC
 DISK USED  *        48.64 MB
 **********************************************************************************************************************************

 Dump information in style XML to orbitals.xml                                                                    

 Variables will not be exported.
 Molecular orbitals read from record     2100.3  Type=RHF/CANONICAL (state 1.1)
 Occupation numbers read from record     2100.3  Type=RHF/RHF (state 1.1)
 Orbital energies read from record       2100.3  Type=RHF/CANONICAL (state 1.1)
 Redundancy group numbers read from rec  2100.3  Type=RHF/RHF (state 1.1)

 **********************************************************************************************************************************

 RHF/cc-pVTZ energy=    -14.871136112507

         RHF-SCF
    -14.87113611
 **********************************************************************************************************************************
 Molpro calculation terminated
