
 Primary working directories    : /scr/yuriaoto/job.023690/molpro.2Hv1e5Ieey
 Secondary working directories  : /scr/yuriaoto/job.023690/molpro.2Hv1e5Ieey
 Wavefunction directory         : /scr/yuriaoto/job.023690/
 Main file repository           : /scr/yuriaoto/job.023690/molpro.2Hv1e5Ieey/

 id        : yuriaoto

 Nodes             nprocs
 t-rex.ufabc.int.br    1

 Using customized tuning parameters: mindgm=8; mindgv=16; mindgc=1; mindgr=1; noblas=0; minvec=7
 default implementation of scratch files=df  


 Variables initialized (933), CPU time= 0.00 sec
 ***,
 memory,40,m
 gprint,orbital,basis,civector
 gthresh,thrprint=0,printci=0.0
 file,3,wfu.dat,old
 
 {ccsd,CC_NORM_MAX=10.0
 nosingle
 thresh,printci=0.0,ENERGY=1.0E-10,COEFF=1.0E-12
 print,ref=1
 wf,6,1,0;
 }
 
 Commands  initialized (760), CPU time= 0.01 sec, 617 directives.
 Default parameters read. Elapsed time= 0.05 sec

 Checking input...
 Passed
1


                                         ***  PROGRAM SYSTEM MOLPRO  ***
                                       Copyright, TTI GmbH Stuttgart, 2015
                                    Version 2019.2 linked Abr  7 2019 15:10:35


 **********************************************************************************************************************************
 LABEL *                                                                                 
  64 bit serial version                                                                  DATE: 05-Jun-20          TIME: 23:33:04  
 **********************************************************************************************************************************

 SHA1:             3a8a58c585c929645742fb5a1b7541a4ad1da699
 **********************************************************************************************************************************


 THRESHOLDS:

 ZERO    =  1.00D-12  ONEINT  =  1.00D-12  TWOINT  =  1.00D-11  PREFAC  =  1.00D-14  XXXXXX  =  1.00D-09  EORDER  =  1.00D-04
 ENERGY  =  0.00D+00  ETEST   =  0.00D+00  EDENS   =  0.00D+00  THRDEDEF=  1.00D-06  GRADIENT=  1.00D-02  STEP    =  1.00D-03
 ORBITAL =  1.00D-05  CIVEC   =  1.00D-05  COEFF   =  1.00D-04  PRINTCI =  0.00D+00  PUNCHCI =  9.90D+01  OPTGRAD =  3.00D-04
 OPTENERG=  1.00D-06  OPTSTEP =  3.00D-04  THRGRAD =  1.00D-10  COMPRESS=  1.00D-11  VARMIN  =  1.00D-07  VARMAX  =  1.00D-03
 THRDOUB =  0.00D+00  THRDIV  =  1.00D-05  THRRED  =  1.00D-07  THRPSP  =  1.00D+00  THRDC   =  1.00D-10  THRCS   =  1.00D-10
 THRNRM  =  1.00D-08  THREQ   =  0.00D+00  THRDE   =  1.00D+00  THRREF  =  1.00D-05  SPARFAC =  1.00D+00  THRDLP  =  1.00D-07
 THRDIA  =  1.00D-10  THRDLS  =  1.00D-07  THRGPS  =  0.00D+00  THRKEX  =  0.00D+00  THRDIS  =  2.00D-01  THRVAR  =  1.00D-10
 THRLOC  =  1.00D-06  THRGAP  =  1.00D-06  THRLOCT = -1.00D+00  THRGAPT = -1.00D+00  THRORB  =  1.00D-06  THRMLTP =  0.00D+00
 THRCPQCI=  1.00D-10  KEXTA   =  0.00D+00  THRCOARS=  0.00D+00  SYMTOL  =  1.00D-06  GRADTOL =  1.00D-06  THROVL  =  1.00D-08
 THRORTH =  1.00D-08  GRID    =  1.00D-06  GRIDMAX =  1.00D-03  DTMAX   =  0.00D+00  THROCCDE=  1.00D-01  THROCCDE=  1.00D-01
 THRPRINT=  0.00D+00


 Variable memory set to   40000000 words,  buffer space 



 Permanent file  3  wfu.dat  assigned.  Implementation=df    Size= 14.14 MB


 PROGRAM * RESTART 


 Reading variables from file 3

 _FNUC           =      0.00000000
 _BASIS          =    CC-PVQZ
 _NELEC          =      6.00000000
 _PROGRAM        =    RHF-SCF
 _DMX_SCF        =      0.00000000
 _DMY_SCF        =      0.00000000
 _DMZ_SCF        =      0.00000000
 _HOMO           =      2.10000000
 _EHOMO          =     -0.18246531
 _LUMO           =      2.50000000
 _ELUMO          =      0.00555584
 _ENERGY         =    -14.87127592
 _ENERGY_METHOD  =    RHF
 _ENERGY_BASIS   =    cc-pVQZ
 _ENUC           =      1.80000000
 _EPS1(1:17)     =     -2.45275542    -0.18246531     0.03118128     0.07675564     0.10329663     0.17513734
                        0.25175330     0.28508831     0.35792933     0.45872422     0.56018831     0.59918038
                        0.62755650     1.11239813     1.15386160     1.19142153     1.32188143
 _EPS2(1:13)     =      0.02433195     0.09353741     0.21068870     0.32226550     0.42191244     0.54628859
                        0.59819740     1.10083269     1.15221110     1.20763857     1.21042280     1.40783887
                        1.71444622
 _EPS3(1:13)     =      0.02433195     0.09353741     0.21068870     0.32226550     0.42191244     0.54628859
                        0.59819740     1.10083269     1.15221110     1.20763857     1.21042280     1.40783887
                        1.71444622
 _EPS4(1:7)      =      0.17513734     0.45872422     0.56018831     1.15386160     1.19142153     1.33151704
                        1.47724476
 _EPS5(1:16)     =     -2.45238917     0.00555584     0.05165406     0.11717968     0.16988016     0.22773801
                        0.28045093     0.41754488     0.49749500     0.57413233     0.61243569     0.63567405
                        0.88007748     1.26225432     1.33801999     1.36959713
 _EPS6(1:13)     =      0.04825428     0.13557655     0.27933523     0.33487951     0.49486051     0.59572254
                        0.76334313     1.19733327     1.25823163     1.41087078     1.41960646     1.59670947
                        2.17132043
 _EPS7(1:13)     =      0.04825428     0.13557655     0.27933523     0.33487951     0.49486051     0.59572254
                        0.76334313     1.19733327     1.25823163     1.41087078     1.41960646     1.59670947
                        2.17132043
 _EPS8(1:7)      =      0.22773801     0.57413233     0.63567405     1.26225432     1.33801999     1.49625433
                        1.70967926
 _IPROC_MPP      =      0.00000000
 _IPROC_MPPX     =      0.00000000
 _ORBITAL        =   2100.30000000
 _STATUS         =      1.00000000
 _DATE           =    10-Feb-20
 _LASTORB        =    RHF
 _OUTPUT         =    /scr/yuriaoto/job.022758/RHF.xml
 _PGROUP         =    D2h 
 _TIME           =    10:56:03
 R               =      5.00000000

 Geometry written to block  1 of record 700


 **********************************************************************************************************************************
 DATASETS  * FILE   NREC   LENGTH (MB)   RECORD NAMES
              3       5       14.82       500      610      700     1000     2100   
                                          VAR    BASINP    GEOM     BASIS     RHF  

 PROGRAMS   *        TOTAL   RESTART
 CPU TIMES  *         0.12      0.02
 REAL TIME  *         0.15 SEC
 DISK USED  *        26.89 MB
 **********************************************************************************************************************************


 Recomputing integrals since basis changed


 Using spherical harmonics

 Library entry LI     S cc-pVQZ              selected for orbital group  1
 Library entry LI     P cc-pVQZ              selected for orbital group  1
 Library entry LI     D cc-pVQZ              selected for orbital group  1
 Library entry LI     F cc-pVQZ              selected for orbital group  1
 Library entry LI     G cc-pVQZ              selected for orbital group  1


 PROGRAM * SEWARD (Integral evaluation for generally contracted gaussian basis sets)     Author: Roland Lindh, 1990

 Geometry written to block  1 of record 700

 Orientation using atomic masses  
 Molecule type: Linear
 User-specified symmetry elements: X,Y,Z
 Symmetry elements: X,Y,Z
 Rotational constants:      20.8009354     20.8009354      0.0000000 GHz  (calculated with average atomic masses)

 Point group  D2h 



 ATOMIC COORDINATES

 NR  ATOM    CHARGE       X              Y              Z

   1  LI1     3.00    0.000000000    0.000000000   -2.500000000
   2  LI2     3.00    0.000000000    0.000000000    2.500000000

 Bond lengths in Bohr (Angstrom)

 1-2  5.000000000
     ( 2.645886055)


 BASIS DATA

   Nr Sym  Nuc  Type         Exponents   Contraction coefficients

    1.1 Ag    1  1s        6601.000000     0.000117   -0.000018    0.000000    0.000000    0.000000
    2.1 Ag    2  1s         989.700000     0.000911   -0.000142    0.000000    0.000000    0.000000
    3.1 Ag                  225.700000     0.004728   -0.000741    0.000000    0.000000    0.000000
    4.1 Ag                   64.290000     0.019197   -0.003020    0.000000    0.000000    0.000000
    5.1 Ag                   21.180000     0.063047   -0.010123    0.000000    0.000000    0.000000
                              7.724000     0.163208   -0.027094    0.000000    0.000000    0.000000
                              3.003000     0.314827   -0.057359    0.000000    0.000000    0.000000
                              1.212000     0.393936   -0.093895    0.000000    0.000000    0.000000
                              0.493000     0.196918   -0.121091    0.000000    0.000000    0.000000
                              0.095150     0.009997    0.276608    1.000000    0.000000    0.000000
                              0.047910    -0.005402    0.549548    0.000000    1.000000    0.000000
                              0.022200     0.001704    0.277385    0.000000    0.000000    1.000000
    6.1 Ag    1  2pz          6.250000     0.003388    0.000000    0.000000    0.000000
    7.1 Ag    2 -2pz          1.370000     0.019316    0.000000    0.000000    0.000000
    8.1 Ag                    0.367200     0.079104    0.000000    0.000000    0.000000
    9.1 Ag                    0.119200     0.274095    1.000000    0.000000    0.000000
                              0.044740     0.519488    0.000000    1.000000    0.000000
                              0.017950     0.284423    0.000000    0.000000    1.000000
   10.1 Ag    1  3d0          0.335200     1.000000
              2  3d0   
   11.1 Ag    1  3d2+         0.335200     1.000000
              2  3d2+  
   12.1 Ag    1  3d0          0.148200     1.000000
              2  3d0   
   13.1 Ag    1  3d2+         0.148200     1.000000
              2  3d2+  
   14.1 Ag    1  3d0          0.065600     1.000000
              2  3d0   
   15.1 Ag    1  3d2+         0.065600     1.000000
              2  3d2+  
   16.1 Ag    1  4f0          0.228000     1.000000
              2 -4f0   
   17.1 Ag    1  4f2+         0.228000     1.000000
              2 -4f2+  
   18.1 Ag    1  4f0          0.113500     1.000000
              2 -4f0   
   19.1 Ag    1  4f2+         0.113500     1.000000
              2 -4f2+  
   20.1 Ag    1  5g0          0.231900     1.000000
              2  5g0   
   21.1 Ag    1  5g4+         0.231900     1.000000
              2  5g4+  
   22.1 Ag    1  5g2+         0.231900     1.000000
              2  5g2+  
    1.2 B3u   1  2px          6.250000     0.003388    0.000000    0.000000    0.000000
    2.2 B3u   2  2px          1.370000     0.019316    0.000000    0.000000    0.000000
    3.2 B3u                   0.367200     0.079104    0.000000    0.000000    0.000000
    4.2 B3u                   0.119200     0.274095    1.000000    0.000000    0.000000
                              0.044740     0.519488    0.000000    1.000000    0.000000
                              0.017950     0.284423    0.000000    0.000000    1.000000
    5.2 B3u   1  3d1+         0.335200     1.000000
              2 -3d1+  
    6.2 B3u   1  3d1+         0.148200     1.000000
              2 -3d1+  
    7.2 B3u   1  3d1+         0.065600     1.000000
              2 -3d1+  
    8.2 B3u   1  4f1+         0.228000     1.000000
              2  4f1+  
    9.2 B3u   1  4f3+         0.228000     1.000000
              2  4f3+  
   10.2 B3u   1  4f1+         0.113500     1.000000
              2  4f1+  
   11.2 B3u   1  4f3+         0.113500     1.000000
              2  4f3+  
   12.2 B3u   1  5g1+         0.231900     1.000000
              2 -5g1+  
   13.2 B3u   1  5g3+         0.231900     1.000000
              2 -5g3+  
    1.3 B2u   1  2py          6.250000     0.003388    0.000000    0.000000    0.000000
    2.3 B2u   2  2py          1.370000     0.019316    0.000000    0.000000    0.000000
    3.3 B2u                   0.367200     0.079104    0.000000    0.000000    0.000000
    4.3 B2u                   0.119200     0.274095    1.000000    0.000000    0.000000
                              0.044740     0.519488    0.000000    1.000000    0.000000
                              0.017950     0.284423    0.000000    0.000000    1.000000
    5.3 B2u   1  3d1-         0.335200     1.000000
              2 -3d1-  
    6.3 B2u   1  3d1-         0.148200     1.000000
              2 -3d1-  
    7.3 B2u   1  3d1-         0.065600     1.000000
              2 -3d1-  
    8.3 B2u   1  4f1-         0.228000     1.000000
              2  4f1-  
    9.3 B2u   1  4f3-         0.228000     1.000000
              2  4f3-  
   10.3 B2u   1  4f1-         0.113500     1.000000
              2  4f1-  
   11.3 B2u   1  4f3-         0.113500     1.000000
              2  4f3-  
   12.3 B2u   1  5g1-         0.231900     1.000000
              2 -5g1-  
   13.3 B2u   1  5g3-         0.231900     1.000000
              2 -5g3-  
    1.4 B1g   1  3d2-         0.335200     1.000000
              2  3d2-  
    2.4 B1g   1  3d2-         0.148200     1.000000
              2  3d2-  
    3.4 B1g   1  3d2-         0.065600     1.000000
              2  3d2-  
    4.4 B1g   1  4f2-         0.228000     1.000000
              2 -4f2-  
    5.4 B1g   1  4f2-         0.113500     1.000000
              2 -4f2-  
    6.4 B1g   1  5g2-         0.231900     1.000000
              2  5g2-  
    7.4 B1g   1  5g4-         0.231900     1.000000
              2  5g4-  
    1.5 B1u   1  1s        6601.000000     0.000117   -0.000018    0.000000    0.000000    0.000000
    2.5 B1u   2 -1s         989.700000     0.000911   -0.000142    0.000000    0.000000    0.000000
    3.5 B1u                 225.700000     0.004728   -0.000741    0.000000    0.000000    0.000000
    4.5 B1u                  64.290000     0.019197   -0.003020    0.000000    0.000000    0.000000
    5.5 B1u                  21.180000     0.063047   -0.010123    0.000000    0.000000    0.000000
                              7.724000     0.163208   -0.027094    0.000000    0.000000    0.000000
                              3.003000     0.314827   -0.057359    0.000000    0.000000    0.000000
                              1.212000     0.393936   -0.093895    0.000000    0.000000    0.000000
                              0.493000     0.196918   -0.121091    0.000000    0.000000    0.000000
                              0.095150     0.009997    0.276608    1.000000    0.000000    0.000000
                              0.047910    -0.005402    0.549548    0.000000    1.000000    0.000000
                              0.022200     0.001704    0.277385    0.000000    0.000000    1.000000
    6.5 B1u   1  2pz          6.250000     0.003388    0.000000    0.000000    0.000000
    7.5 B1u   2  2pz          1.370000     0.019316    0.000000    0.000000    0.000000
    8.5 B1u                   0.367200     0.079104    0.000000    0.000000    0.000000
    9.5 B1u                   0.119200     0.274095    1.000000    0.000000    0.000000
                              0.044740     0.519488    0.000000    1.000000    0.000000
                              0.017950     0.284423    0.000000    0.000000    1.000000
   10.5 B1u   1  3d0          0.335200     1.000000
              2 -3d0   
   11.5 B1u   1  3d2+         0.335200     1.000000
              2 -3d2+  
   12.5 B1u   1  3d0          0.148200     1.000000
              2 -3d0   
   13.5 B1u   1  3d2+         0.148200     1.000000
              2 -3d2+  
   14.5 B1u   1  3d0          0.065600     1.000000
              2 -3d0   
   15.5 B1u   1  3d2+         0.065600     1.000000
              2 -3d2+  
   16.5 B1u   1  4f0          0.228000     1.000000
              2  4f0   
   17.5 B1u   1  4f2+         0.228000     1.000000
              2  4f2+  
   18.5 B1u   1  4f0          0.113500     1.000000
              2  4f0   
   19.5 B1u   1  4f2+         0.113500     1.000000
              2  4f2+  
   20.5 B1u   1  5g0          0.231900     1.000000
              2 -5g0   
   21.5 B1u   1  5g4+         0.231900     1.000000
              2 -5g4+  
   22.5 B1u   1  5g2+         0.231900     1.000000
              2 -5g2+  
    1.6 B2g   1  2px          6.250000     0.003388    0.000000    0.000000    0.000000
    2.6 B2g   2 -2px          1.370000     0.019316    0.000000    0.000000    0.000000
    3.6 B2g                   0.367200     0.079104    0.000000    0.000000    0.000000
    4.6 B2g                   0.119200     0.274095    1.000000    0.000000    0.000000
                              0.044740     0.519488    0.000000    1.000000    0.000000
                              0.017950     0.284423    0.000000    0.000000    1.000000
    5.6 B2g   1  3d1+         0.335200     1.000000
              2  3d1+  
    6.6 B2g   1  3d1+         0.148200     1.000000
              2  3d1+  
    7.6 B2g   1  3d1+         0.065600     1.000000
              2  3d1+  
    8.6 B2g   1  4f1+         0.228000     1.000000
              2 -4f1+  
    9.6 B2g   1  4f3+         0.228000     1.000000
              2 -4f3+  
   10.6 B2g   1  4f1+         0.113500     1.000000
              2 -4f1+  
   11.6 B2g   1  4f3+         0.113500     1.000000
              2 -4f3+  
   12.6 B2g   1  5g1+         0.231900     1.000000
              2  5g1+  
   13.6 B2g   1  5g3+         0.231900     1.000000
              2  5g3+  
    1.7 B3g   1  2py          6.250000     0.003388    0.000000    0.000000    0.000000
    2.7 B3g   2 -2py          1.370000     0.019316    0.000000    0.000000    0.000000
    3.7 B3g                   0.367200     0.079104    0.000000    0.000000    0.000000
    4.7 B3g                   0.119200     0.274095    1.000000    0.000000    0.000000
                              0.044740     0.519488    0.000000    1.000000    0.000000
                              0.017950     0.284423    0.000000    0.000000    1.000000
    5.7 B3g   1  3d1-         0.335200     1.000000
              2  3d1-  
    6.7 B3g   1  3d1-         0.148200     1.000000
              2  3d1-  
    7.7 B3g   1  3d1-         0.065600     1.000000
              2  3d1-  
    8.7 B3g   1  4f1-         0.228000     1.000000
              2 -4f1-  
    9.7 B3g   1  4f3-         0.228000     1.000000
              2 -4f3-  
   10.7 B3g   1  4f1-         0.113500     1.000000
              2 -4f1-  
   11.7 B3g   1  4f3-         0.113500     1.000000
              2 -4f3-  
   12.7 B3g   1  5g1-         0.231900     1.000000
              2  5g1-  
   13.7 B3g   1  5g3-         0.231900     1.000000
              2  5g3-  
    1.8 Au    1  3d2-         0.335200     1.000000
              2 -3d2-  
    2.8 Au    1  3d2-         0.148200     1.000000
              2 -3d2-  
    3.8 Au    1  3d2-         0.065600     1.000000
              2 -3d2-  
    4.8 Au    1  4f2-         0.228000     1.000000
              2  4f2-  
    5.8 Au    1  4f2-         0.113500     1.000000
              2  4f2-  
    6.8 Au    1  5g2-         0.231900     1.000000
              2 -5g2-  
    7.8 Au    1  5g4-         0.231900     1.000000
              2 -5g4-  

 NUCLEAR CHARGE:                    6
 NUMBER OF PRIMITIVE AOS:         166
 NUMBER OF SYMMETRY AOS:          136
 NUMBER OF CONTRACTIONS:          110   (   22Ag  +   13B3u +   13B2u +    7B1g +   22B1u +   13B2g +   13B3g +    7Au  )
 NUMBER OF CORE ORBITALS:           2   (    1Ag  +    0B3u +    0B2u +    0B1g +    1B1u +    0B2g +    0B3g +    0Au  )
 NUMBER OF VALENCE ORBITALS:        8   (    2Ag  +    1B3u +    1B2u +    0B1g +    2B1u +    1B2g +    1B3g +    0Au  )


 NUCLEAR REPULSION ENERGY    1.80000000

 EXTRA SYMMETRY OF AOS IN SYMMETRY 1:   1 1 1 1 1 1 1 1 1 1   2 1 2 1 2 1 2 1 2 1   3 2
 EXTRA SYMMETRY OF AOS IN SYMMETRY 2:   1 1 1 1 1 1 1 1 2 1   2 1 2
 EXTRA SYMMETRY OF AOS IN SYMMETRY 3:   1 1 1 1 1 1 1 1 2 1   2 1 2
 EXTRA SYMMETRY OF AOS IN SYMMETRY 4:   1 1 1 1 1 1 2
 EXTRA SYMMETRY OF AOS IN SYMMETRY 5:   1 1 1 1 1 1 1 1 1 1   2 1 2 1 2 1 2 1 2 1   3 2
 EXTRA SYMMETRY OF AOS IN SYMMETRY 6:   1 1 1 1 1 1 1 1 2 1   2 1 2
 EXTRA SYMMETRY OF AOS IN SYMMETRY 7:   1 1 1 1 1 1 1 1 2 1   2 1 2
 EXTRA SYMMETRY OF AOS IN SYMMETRY 8:   1 1 1 1 1 1 2

 Eigenvalues of metric

         1 0.994E-03 0.132E-02 0.325E-02 0.199E-01 0.547E-01 0.104E+00 0.149E+00 0.239E+00
         2 0.291E-02 0.573E-01 0.850E-01 0.172E+00 0.265E+00 0.482E+00 0.871E+00 0.113E+01
         3 0.291E-02 0.573E-01 0.850E-01 0.172E+00 0.265E+00 0.482E+00 0.871E+00 0.113E+01
         4 0.104E+00 0.239E+00 0.742E+00 0.106E+01 0.121E+01 0.202E+01 0.331E+01
         5 0.207E-03 0.332E-03 0.104E-02 0.290E-02 0.748E-02 0.380E-01 0.611E-01 0.743E-01
         6 0.112E-02 0.647E-02 0.162E-01 0.619E-01 0.145E+00 0.190E+00 0.218E+00 0.538E+00
         7 0.112E-02 0.647E-02 0.162E-01 0.619E-01 0.145E+00 0.190E+00 0.218E+00 0.538E+00
         8 0.611E-01 0.743E-01 0.274E+00 0.541E+00 0.945E+00 0.128E+01 0.214E+01


 Contracted 2-electron integrals neglected if value below      1.0D-11
 AO integral compression algorithm  1   Integral accuracy      1.0D-11

     15.729 MB (compressed) written to integral file ( 45.3%)


 NUMBER OF SORTED TWO-ELECTRON INTEGRALS:    2445884.     BUFFER LENGTH:  32768
 NUMBER OF SEGMENTS:   1  SEGMENT LENGTH:    2445884      RECORD LENGTH: 524288

 Memory used in sort:       3.00 MW

 SORT1 READ     4396992. AND WROTE     1896858. INTEGRALS IN      6 RECORDS. CPU TIME:     0.10 SEC, REAL TIME:     0.11 SEC
 SORT2 READ     1896858. AND WROTE     2445884. INTEGRALS IN     60 RECORDS. CPU TIME:     0.14 SEC, REAL TIME:     0.15 SEC

 FILE SIZES:   FILE 1:    46.0 MBYTE,  FILE 4:    25.2 MBYTE,   TOTAL:     71.2 MBYTE

 OPERATOR DM      FOR CENTER  0  COORDINATES:    0.000000    0.000000    0.000000


 **********************************************************************************************************************************
 DATASETS  * FILE   NREC   LENGTH (MB)   RECORD NAMES
              1      19       39.16       500      700      610      900      950      970     1000      129      960     1100   
                                          VAR     GEOM    BASINP   SYMINP    ZMAT    AOBASIS   BASIS     P2S    ABASIS      S 
                                         1400     1410     1200     1210     1080     1600     1650     1300     1700   
                                           T        V       H0       H01     AOSYM     SMH    MOLCAS    ERIS     OPER   

              3       5       14.82       500      610      700     1000     2100   
                                          VAR    BASINP    GEOM     BASIS     RHF  

 PROGRAMS   *        TOTAL       INT   RESTART
 CPU TIMES  *         1.07      0.95      0.02
 REAL TIME  *         1.28 SEC
 DISK USED  *        86.27 MB
 **********************************************************************************************************************************


 PROGRAM * CCSD (Closed-shell coupled cluster)     Authors: C. Hampel, H.-J. Werner, 1991, M. Deegan, P.J. Knowles, 1992


 Input parameters for THRESH:

 ENERGY   =    1.00D-10
 COEFF    =    1.00D-12
 PRINTCI  =    0.000000
 THRPRINT =    0.000000

 Convergence thresholds:  THRVAR = 1.00D-24  THRDEN = 1.00D-10

 Number of core orbitals:           2 (   1   0   0   0   1   0   0   0 )
 Number of closed-shell orbitals:   1 (   1   0   0   0   0   0   0   0 )
 Number of external orbitals:     107 (  20  13  13   7  21  13  13   7 )

 Molecular orbitals read from record     2100.3  Type=RHF/CANONICAL (state 1.1)

 Number of N-1 electron functions:               0
 Number of N-2 electron functions:               1
 Number of singly external CSFs:                 0
 Number of doubly external CSFs:               861
 Total number of CSFs:                         862

 Length of J-op  integral file:               0.00 MB
 Length of K-op  integral file:               0.15 MB
 Length of 3-ext integral record:             0.00 MB

 Integral transformation finished. Total CPU:   0.01 sec, npass=  1  Memory used:   0.17 MW

 Reference energy:                    -14.87127592

 MP2 singlet pair energy:              -0.02225835
 MP2 triplet pair energy:               0.00000000
 MP2 correlation energy:               -0.02225835
 MP2 total energy:                    -14.89353427

 SCS-MP2 correlation energy:           -0.02671002   (PS=  1.200000  PT=  0.333333)
 SCS-MP2 total energy:                -14.89798594

 ITER.      SQ.NORM     CORR.ENERGY   TOTAL ENERGY   ENERGY CHANGE        DEN1      VAR(S)    VAR(P)  DIIS     TIME  TIME/IT
   1      1.04923804    -0.02859958   -14.89987550    -0.00634124    -0.00281016  0.00D+00  0.24D-02  1  1     0.02     0.01
   2      1.06937289    -0.03119891   -14.90247483    -0.00259933    -0.00334498  0.00D+00  0.84D-03  2  2     0.03     0.01
   3      1.09429170    -0.03211250   -14.90338842    -0.00091358    -0.00312277  0.00D+00  0.75D-04  3  3     0.04     0.01
   4      1.09992423    -0.03204457   -14.90332049     0.00006793    -0.00042075  0.00D+00  0.10D-04  4  4     0.04     0.01
   5      1.10184053    -0.03212204   -14.90339796    -0.00007747    -0.00012128  0.00D+00  0.18D-05  5  5     0.06     0.01
   6      1.10233766    -0.03210841   -14.90338433     0.00001363    -0.00003091  0.00D+00  0.18D-06  6  6     0.07     0.01
   7      1.10235265    -0.03210565   -14.90338157     0.00000276     0.00000316  0.00D+00  0.20D-07  6  1     0.08     0.01
   8      1.10236855    -0.03210738   -14.90338331    -0.00000173    -0.00000115  0.00D+00  0.27D-08  6  2     0.10     0.01
   9      1.10237004    -0.03210719   -14.90338311     0.00000019    -0.00000034  0.00D+00  0.24D-09  6  3     0.11     0.01
  10      1.10236703    -0.03210726   -14.90338318    -0.00000007     0.00000031  0.00D+00  0.29D-10  6  4     0.13     0.01
  11      1.10236647    -0.03210727   -14.90338319    -0.00000001     0.00000007  0.00D+00  0.46D-11  6  5     0.14     0.01
  12      1.10236702    -0.03210726   -14.90338318     0.00000001    -0.00000007  0.00D+00  0.92D-12  6  6     0.15     0.01
  13      1.10236732    -0.03210726   -14.90338318     0.00000001    -0.00000003  0.00D+00  0.25D-12  6  1     0.16     0.01
  14      1.10236745    -0.03210725   -14.90338318     0.00000000    -0.00000001  0.00D+00  0.39D-13  6  2     0.17     0.01
  15      1.10236743    -0.03210725   -14.90338318    -0.00000000     0.00000000  0.00D+00  0.68D-14  6  3     0.18     0.01
  16      1.10236743    -0.03210726   -14.90338318    -0.00000000     0.00000000  0.00D+00  0.17D-14  6  4     0.19     0.01
  17      1.10236744    -0.03210725   -14.90338318     0.00000000    -0.00000000  0.00D+00  0.29D-15  6  5     0.20     0.01
  18      1.10236744    -0.03210725   -14.90338318     0.00000000    -0.00000000  0.00D+00  0.60D-16  6  6     0.21     0.01
  19      1.10236745    -0.03210725   -14.90338318     0.00000000    -0.00000000  0.00D+00  0.78D-17  6  1     0.22     0.01
  20      1.10236745    -0.03210725   -14.90338318    -0.00000000    -0.00000000  0.00D+00  0.10D-17  6  2     0.23     0.01
  21      1.10236745    -0.03210725   -14.90338318     0.00000000    -0.00000000  0.00D+00  0.27D-18  6  3     0.24     0.01
  22      1.10236745    -0.03210725   -14.90338318     0.00000000    -0.00000000  0.00D+00  0.73D-19  6  4     0.24     0.01
  23      1.10236745    -0.03210725   -14.90338318     0.00000000    -0.00000000  0.00D+00  0.18D-19  6  5     0.25     0.01
  24      1.10236745    -0.03210725   -14.90338318    -0.00000000     0.00000000  0.00D+00  0.30D-20  6  6     0.26     0.01
  25      1.10236745    -0.03210725   -14.90338318     0.00000000     0.00000000  0.00D+00  0.59D-21  6  1     0.27     0.01
  26      1.10236745    -0.03210725   -14.90338318     0.00000000    -0.00000000  0.00D+00  0.15D-21  6  2     0.28     0.01
  27      1.10236745    -0.03210725   -14.90338318     0.00000000    -0.00000000  0.00D+00  0.26D-22  6  3     0.29     0.01
  28      1.10236745    -0.03210725   -14.90338318     0.00000000    -0.00000000  0.00D+00  0.38D-23  6  4     0.30     0.01
  29      1.10236745    -0.03210725   -14.90338318     0.00000000    -0.00000000  0.00D+00  0.53D-24  6  1     0.31     0.01


 Doubles amplitudes (print threshold =  0.000E+00):

         I         J         SYM. A    SYM. B    A         B      T(IJ, AB)

         1         1         1         1         1         1     -0.03783546
         1         1         1         1         1         2      0.03372987
         1         1         1         1         1         3     -0.03308260
         1         1         1         1         1         4     -0.00000000
         1         1         1         1         1         5     -0.03058961
         1         1         1         1         1         6      0.00884419
         1         1         1         1         1         7     -0.00781024
         1         1         1         1         1         8      0.00000000
         1         1         1         1         1         9      0.00000000
         1         1         1         1         1        10     -0.00215994
         1         1         1         1         1        11     -0.00870937
         1         1         1         1         1        12      0.00092342
         1         1         1         1         1        13      0.00000000
         1         1         1         1         1        14     -0.00000000
         1         1         1         1         1        15     -0.00211733
         1         1         1         1         1        16     -0.00000000
         1         1         1         1         1        17      0.00085446
         1         1         1         1         1        18      0.00000000
         1         1         1         1         1        19      0.00105036
         1         1         1         1         1        20     -0.00011952
         1         1         1         1         2         1      0.03372987
         1         1         1         1         2         2     -0.03271494
         1         1         1         1         2         3      0.02830094
         1         1         1         1         2         4      0.00000000
         1         1         1         1         2         5      0.02976314
         1         1         1         1         2         6     -0.00817999
         1         1         1         1         2         7      0.00968649
         1         1         1         1         2         8     -0.00000000
         1         1         1         1         2         9     -0.00000000
         1         1         1         1         2        10      0.00282496
         1         1         1         1         2        11      0.00844271
         1         1         1         1         2        12     -0.00035718
         1         1         1         1         2        13     -0.00000000
         1         1         1         1         2        14     -0.00000000
         1         1         1         1         2        15      0.00201894
         1         1         1         1         2        16      0.00000000
         1         1         1         1         2        17     -0.00071876
         1         1         1         1         2        18     -0.00000000
         1         1         1         1         2        19     -0.00114500
         1         1         1         1         2        20      0.00000926
         1         1         1         1         3         1     -0.03308260
         1         1         1         1         3         2      0.02830094
         1         1         1         1         3         3     -0.02971027
         1         1         1         1         3         4      0.00000000
         1         1         1         1         3         5     -0.02609618
         1         1         1         1         3         6      0.00767894
         1         1         1         1         3         7     -0.00554454
         1         1         1         1         3         8     -0.00000000
         1         1         1         1         3         9     -0.00000000
         1         1         1         1         3        10     -0.00131265
         1         1         1         1         3        11     -0.00797975
         1         1         1         1         3        12      0.00152700
         1         1         1         1         3        13      0.00000000
         1         1         1         1         3        14     -0.00000000
         1         1         1         1         3        15     -0.00222446
         1         1         1         1         3        16     -0.00000000
         1         1         1         1         3        17      0.00100174
         1         1         1         1         3        18      0.00000000
         1         1         1         1         3        19      0.00114627
         1         1         1         1         3        20     -0.00026647
         1         1         1         1         4         1     -0.00000000
         1         1         1         1         4         2      0.00000000
         1         1         1         1         4         3      0.00000000
         1         1         1         1         4         4     -0.00481654
         1         1         1         1         4         5     -0.00000000
         1         1         1         1         4         6      0.00000000
         1         1         1         1         4         7      0.00000000
         1         1         1         1         4         8     -0.00288032
         1         1         1         1         4         9     -0.00160659
         1         1         1         1         4        10     -0.00000000
         1         1         1         1         4        11     -0.00000000
         1         1         1         1         4        12      0.00000000
         1         1         1         1         4        13     -0.00077357
         1         1         1         1         4        14      0.00000000
         1         1         1         1         4        15     -0.00000000
         1         1         1         1         4        16     -0.00012614
         1         1         1         1         4        17      0.00000000
         1         1         1         1         4        18      0.00034438
         1         1         1         1         4        19      0.00000000
         1         1         1         1         4        20      0.00000000
         1         1         1         1         5         1     -0.03058961
         1         1         1         1         5         2      0.02976314
         1         1         1         1         5         3     -0.02609618
         1         1         1         1         5         4     -0.00000000
         1         1         1         1         5         5     -0.02890244
         1         1         1         1         5         6      0.00776879
         1         1         1         1         5         7     -0.00988510
         1         1         1         1         5         8     -0.00000000
         1         1         1         1         5         9     -0.00000000
         1         1         1         1         5        10     -0.00302888
         1         1         1         1         5        11     -0.00954828
         1         1         1         1         5        12      0.00060112
         1         1         1         1         5        13      0.00000000
         1         1         1         1         5        14     -0.00000000
         1         1         1         1         5        15     -0.00278974
         1         1         1         1         5        16      0.00000000
         1         1         1         1         5        17      0.00101447
         1         1         1         1         5        18      0.00000000
         1         1         1         1         5        19      0.00175497
         1         1         1         1         5        20     -0.00007867
         1         1         1         1         6         1      0.00884419
         1         1         1         1         6         2     -0.00817999
         1         1         1         1         6         3      0.00767894
         1         1         1         1         6         4      0.00000000
         1         1         1         1         6         5      0.00776879
         1         1         1         1         6         6     -0.00252633
         1         1         1         1         6         7      0.00225015
         1         1         1         1         6         8      0.00000000
         1         1         1         1         6         9     -0.00000000
         1         1         1         1         6        10      0.00079237
         1         1         1         1         6        11      0.00278934
         1         1         1         1         6        12     -0.00044749
         1         1         1         1         6        13     -0.00000000
         1         1         1         1         6        14      0.00000000
         1         1         1         1         6        15      0.00102467
         1         1         1         1         6        16     -0.00000000
         1         1         1         1         6        17     -0.00052485
         1         1         1         1         6        18      0.00000000
         1         1         1         1         6        19     -0.00055619
         1         1         1         1         6        20      0.00018393
         1         1         1         1         7         1     -0.00781024
         1         1         1         1         7         2      0.00968649
         1         1         1         1         7         3     -0.00554454
         1         1         1         1         7         4      0.00000000
         1         1         1         1         7         5     -0.00988510
         1         1         1         1         7         6      0.00225015
         1         1         1         1         7         7     -0.00630441
         1         1         1         1         7         8     -0.00000000
         1         1         1         1         7         9     -0.00000000
         1         1         1         1         7        10     -0.00224968
         1         1         1         1         7        11     -0.00312126
         1         1         1         1         7        12     -0.00115333
         1         1         1         1         7        13     -0.00000000
         1         1         1         1         7        14      0.00000000
         1         1         1         1         7        15     -0.00077990
         1         1         1         1         7        16      0.00000000
         1         1         1         1         7        17      0.00021868
         1         1         1         1         7        18      0.00000000
         1         1         1         1         7        19      0.00067188
         1         1         1         1         7        20      0.00042326
         1         1         1         1         8         1      0.00000000
         1         1         1         1         8         2     -0.00000000
         1         1         1         1         8         3     -0.00000000
         1         1         1         1         8         4     -0.00288032
         1         1         1         1         8         5     -0.00000000
         1         1         1         1         8         6      0.00000000
         1         1         1         1         8         7     -0.00000000
         1         1         1         1         8         8     -0.00293056
         1         1         1         1         8         9     -0.00144333
         1         1         1         1         8        10     -0.00000000
         1         1         1         1         8        11     -0.00000000
         1         1         1         1         8        12     -0.00000000
         1         1         1         1         8        13     -0.00122542
         1         1         1         1         8        14     -0.00000000
         1         1         1         1         8        15      0.00000000
         1         1         1         1         8        16     -0.00036394
         1         1         1         1         8        17     -0.00000000
         1         1         1         1         8        18      0.00027425
         1         1         1         1         8        19     -0.00000000
         1         1         1         1         8        20     -0.00000000
         1         1         1         1         9         1      0.00000000
         1         1         1         1         9         2     -0.00000000
         1         1         1         1         9         3     -0.00000000
         1         1         1         1         9         4     -0.00160659
         1         1         1         1         9         5     -0.00000000
         1         1         1         1         9         6     -0.00000000
         1         1         1         1         9         7     -0.00000000
         1         1         1         1         9         8     -0.00144333
         1         1         1         1         9         9     -0.00177362
         1         1         1         1         9        10      0.00000000
         1         1         1         1         9        11     -0.00000000
         1         1         1         1         9        12     -0.00000000
         1         1         1         1         9        13     -0.00103893
         1         1         1         1         9        14      0.00000000
         1         1         1         1         9        15     -0.00000000
         1         1         1         1         9        16     -0.00007345
         1         1         1         1         9        17     -0.00000000
         1         1         1         1         9        18     -0.00002451
         1         1         1         1         9        19     -0.00000000
         1         1         1         1         9        20     -0.00000000
         1         1         1         1        10         1     -0.00215994
         1         1         1         1        10         2      0.00282496
         1         1         1         1        10         3     -0.00131265
         1         1         1         1        10         4     -0.00000000
         1         1         1         1        10         5     -0.00302888
         1         1         1         1        10         6      0.00079237
         1         1         1         1        10         7     -0.00224968
         1         1         1         1        10         8     -0.00000000
         1         1         1         1        10         9      0.00000000
         1         1         1         1        10        10     -0.00118568
         1         1         1         1        10        11     -0.00143803
         1         1         1         1        10        12     -0.00059551
         1         1         1         1        10        13      0.00000000
         1         1         1         1        10        14     -0.00000000
         1         1         1         1        10        15     -0.00077329
         1         1         1         1        10        16     -0.00000000
         1         1         1         1        10        17      0.00028359
         1         1         1         1        10        18     -0.00000000
         1         1         1         1        10        19      0.00042122
         1         1         1         1        10        20      0.00005290
         1         1         1         1        11         1     -0.00870937
         1         1         1         1        11         2      0.00844271
         1         1         1         1        11         3     -0.00797975
         1         1         1         1        11         4     -0.00000000
         1         1         1         1        11         5     -0.00954828
         1         1         1         1        11         6      0.00278934
         1         1         1         1        11         7     -0.00312126
         1         1         1         1        11         8     -0.00000000
         1         1         1         1        11         9     -0.00000000
         1         1         1         1        11        10     -0.00143803
         1         1         1         1        11        11     -0.00473053
         1         1         1         1        11        12      0.00018314
         1         1         1         1        11        13      0.00000000
         1         1         1         1        11        14     -0.00000000
         1         1         1         1        11        15     -0.00209046
         1         1         1         1        11        16      0.00000000
         1         1         1         1        11        17      0.00047474
         1         1         1         1        11        18     -0.00000000
         1         1         1         1        11        19      0.00109208
         1         1         1         1        11        20     -0.00017194
         1         1         1         1        12         1      0.00092342
         1         1         1         1        12         2     -0.00035718
         1         1         1         1        12         3      0.00152700
         1         1         1         1        12         4      0.00000000
         1         1         1         1        12         5      0.00060112
         1         1         1         1        12         6     -0.00044749
         1         1         1         1        12         7     -0.00115333
         1         1         1         1        12         8     -0.00000000
         1         1         1         1        12         9     -0.00000000
         1         1         1         1        12        10     -0.00059551
         1         1         1         1        12        11      0.00018314
         1         1         1         1        12        12     -0.00123171
         1         1         1         1        12        13      0.00000000
         1         1         1         1        12        14      0.00000000
         1         1         1         1        12        15     -0.00041295
         1         1         1         1        12        16     -0.00000000
         1         1         1         1        12        17      0.00013830
         1         1         1         1        12        18      0.00000000
         1         1         1         1        12        19      0.00006028
         1         1         1         1        12        20      0.00037604
         1         1         1         1        13         1      0.00000000
         1         1         1         1        13         2     -0.00000000
         1         1         1         1        13         3      0.00000000
         1         1         1         1        13         4     -0.00077357
         1         1         1         1        13         5      0.00000000
         1         1         1         1        13         6     -0.00000000
         1         1         1         1        13         7     -0.00000000
         1         1         1         1        13         8     -0.00122542
         1         1         1         1        13         9     -0.00103893
         1         1         1         1        13        10      0.00000000
         1         1         1         1        13        11      0.00000000
         1         1         1         1        13        12      0.00000000
         1         1         1         1        13        13     -0.00160370
         1         1         1         1        13        14     -0.00000000
         1         1         1         1        13        15     -0.00000000
         1         1         1         1        13        16     -0.00045377
         1         1         1         1        13        17      0.00000000
         1         1         1         1        13        18     -0.00008461
         1         1         1         1        13        19      0.00000000
         1         1         1         1        13        20      0.00000000
         1         1         1         1        14         1     -0.00000000
         1         1         1         1        14         2     -0.00000000
         1         1         1         1        14         3     -0.00000000
         1         1         1         1        14         4      0.00000000
         1         1         1         1        14         5     -0.00000000
         1         1         1         1        14         6      0.00000000
         1         1         1         1        14         7      0.00000000
         1         1         1         1        14         8     -0.00000000
         1         1         1         1        14         9      0.00000000
         1         1         1         1        14        10     -0.00000000
         1         1         1         1        14        11     -0.00000000
         1         1         1         1        14        12      0.00000000
         1         1         1         1        14        13     -0.00000000
         1         1         1         1        14        14     -0.00053460
         1         1         1         1        14        15      0.00000000
         1         1         1         1        14        16     -0.00000000
         1         1         1         1        14        17     -0.00000000
         1         1         1         1        14        18     -0.00000000
         1         1         1         1        14        19     -0.00000000
         1         1         1         1        14        20      0.00000000
         1         1         1         1        15         1     -0.00211733
         1         1         1         1        15         2      0.00201894
         1         1         1         1        15         3     -0.00222446
         1         1         1         1        15         4     -0.00000000
         1         1         1         1        15         5     -0.00278974
         1         1         1         1        15         6      0.00102467
         1         1         1         1        15         7     -0.00077990
         1         1         1         1        15         8      0.00000000
         1         1         1         1        15         9     -0.00000000
         1         1         1         1        15        10     -0.00077329
         1         1         1         1        15        11     -0.00209046
         1         1         1         1        15        12     -0.00041295
         1         1         1         1        15        13     -0.00000000
         1         1         1         1        15        14      0.00000000
         1         1         1         1        15        15     -0.00173385
         1         1         1         1        15        16      0.00000000
         1         1         1         1        15        17      0.00027932
         1         1         1         1        15        18     -0.00000000
         1         1         1         1        15        19      0.00053484
         1         1         1         1        15        20     -0.00016081
         1         1         1         1        16         1     -0.00000000
         1         1         1         1        16         2      0.00000000
         1         1         1         1        16         3     -0.00000000
         1         1         1         1        16         4     -0.00012614
         1         1         1         1        16         5      0.00000000
         1         1         1         1        16         6     -0.00000000
         1         1         1         1        16         7      0.00000000
         1         1         1         1        16         8     -0.00036394
         1         1         1         1        16         9     -0.00007345
         1         1         1         1        16        10     -0.00000000
         1         1         1         1        16        11      0.00000000
         1         1         1         1        16        12     -0.00000000
         1         1         1         1        16        13     -0.00045377
         1         1         1         1        16        14     -0.00000000
         1         1         1         1        16        15      0.00000000
         1         1         1         1        16        16     -0.00035408
         1         1         1         1        16        17      0.00000000
         1         1         1         1        16        18      0.00008626
         1         1         1         1        16        19     -0.00000000
         1         1         1         1        16        20     -0.00000000
         1         1         1         1        17         1      0.00085446
         1         1         1         1        17         2     -0.00071876
         1         1         1         1        17         3      0.00100174
         1         1         1         1        17         4      0.00000000
         1         1         1         1        17         5      0.00101447
         1         1         1         1        17         6     -0.00052485
         1         1         1         1        17         7      0.00021868
         1         1         1         1        17         8     -0.00000000
         1         1         1         1        17         9     -0.00000000
         1         1         1         1        17        10      0.00028359
         1         1         1         1        17        11      0.00047474
         1         1         1         1        17        12      0.00013830
         1         1         1         1        17        13      0.00000000
         1         1         1         1        17        14     -0.00000000
         1         1         1         1        17        15      0.00027932
         1         1         1         1        17        16      0.00000000
         1         1         1         1        17        17     -0.00020517
         1         1         1         1        17        18      0.00000000
         1         1         1         1        17        19     -0.00013307
         1         1         1         1        17        20      0.00008519
         1         1         1         1        18         1      0.00000000
         1         1         1         1        18         2     -0.00000000
         1         1         1         1        18         3      0.00000000
         1         1         1         1        18         4      0.00034438
         1         1         1         1        18         5      0.00000000
         1         1         1         1        18         6      0.00000000
         1         1         1         1        18         7      0.00000000
         1         1         1         1        18         8      0.00027425
         1         1         1         1        18         9     -0.00002451
         1         1         1         1        18        10     -0.00000000
         1         1         1         1        18        11     -0.00000000
         1         1         1         1        18        12      0.00000000
         1         1         1         1        18        13     -0.00008461
         1         1         1         1        18        14     -0.00000000
         1         1         1         1        18        15     -0.00000000
         1         1         1         1        18        16      0.00008626
         1         1         1         1        18        17      0.00000000
         1         1         1         1        18        18     -0.00027864
         1         1         1         1        18        19     -0.00000000
         1         1         1         1        18        20     -0.00000000
         1         1         1         1        19         1      0.00105036
         1         1         1         1        19         2     -0.00114500
         1         1         1         1        19         3      0.00114627
         1         1         1         1        19         4      0.00000000
         1         1         1         1        19         5      0.00175497
         1         1         1         1        19         6     -0.00055619
         1         1         1         1        19         7      0.00067188
         1         1         1         1        19         8     -0.00000000
         1         1         1         1        19         9     -0.00000000
         1         1         1         1        19        10      0.00042122
         1         1         1         1        19        11      0.00109208
         1         1         1         1        19        12      0.00006028
         1         1         1         1        19        13      0.00000000
         1         1         1         1        19        14     -0.00000000
         1         1         1         1        19        15      0.00053484
         1         1         1         1        19        16     -0.00000000
         1         1         1         1        19        17     -0.00013307
         1         1         1         1        19        18     -0.00000000
         1         1         1         1        19        19     -0.00037718
         1         1         1         1        19        20      0.00003747
         1         1         1         1        20         1     -0.00011952
         1         1         1         1        20         2      0.00000926
         1         1         1         1        20         3     -0.00026647
         1         1         1         1        20         4      0.00000000
         1         1         1         1        20         5     -0.00007867
         1         1         1         1        20         6      0.00018393
         1         1         1         1        20         7      0.00042326
         1         1         1         1        20         8     -0.00000000
         1         1         1         1        20         9     -0.00000000
         1         1         1         1        20        10      0.00005290
         1         1         1         1        20        11     -0.00017194
         1         1         1         1        20        12      0.00037604
         1         1         1         1        20        13      0.00000000
         1         1         1         1        20        14      0.00000000
         1         1         1         1        20        15     -0.00016081
         1         1         1         1        20        16     -0.00000000
         1         1         1         1        20        17      0.00008519
         1         1         1         1        20        18     -0.00000000
         1         1         1         1        20        19      0.00003747
         1         1         1         1        20        20     -0.00075187
         1         1         2         2         1         1     -0.08491337
         1         1         2         2         1         2      0.08081454
         1         1         2         2         1         3     -0.03113444
         1         1         2         2         1         4     -0.02282342
         1         1         2         2         1         5      0.00000000
         1         1         2         2         1         6     -0.01484277
         1         1         2         2         1         7     -0.00009160
         1         1         2         2         1         8      0.00119817
         1         1         2         2         1         9     -0.00000000
         1         1         2         2         1        10     -0.00262181
         1         1         2         2         1        11     -0.00000000
         1         1         2         2         1        12     -0.00080226
         1         1         2         2         1        13      0.00028066
         1         1         2         2         2         1      0.08081454
         1         1         2         2         2         2     -0.07801280
         1         1         2         2         2         3      0.03061934
         1         1         2         2         2         4      0.02278842
         1         1         2         2         2         5     -0.00000000
         1         1         2         2         2         6      0.01564694
         1         1         2         2         2         7      0.00016031
         1         1         2         2         2         8     -0.00172602
         1         1         2         2         2         9      0.00000000
         1         1         2         2         2        10      0.00305862
         1         1         2         2         2        11      0.00000000
         1         1         2         2         2        12      0.00088883
         1         1         2         2         2        13     -0.00044456
         1         1         2         2         3         1     -0.03113444
         1         1         2         2         3         2      0.03061934
         1         1         2         2         3         3     -0.01355490
         1         1         2         2         3         4     -0.00891695
         1         1         2         2         3         5     -0.00000000
         1         1         2         2         3         6     -0.00767218
         1         1         2         2         3         7     -0.00047143
         1         1         2         2         3         8      0.00086731
         1         1         2         2         3         9      0.00000000
         1         1         2         2         3        10     -0.00166030
         1         1         2         2         3        11      0.00000000
         1         1         2         2         3        12     -0.00022837
         1         1         2         2         3        13      0.00044519
         1         1         2         2         4         1     -0.02282342
         1         1         2         2         4         2      0.02278842
         1         1         2         2         4         3     -0.00891695
         1         1         2         2         4         4     -0.00871294
         1         1         2         2         4         5      0.00000000
         1         1         2         2         4         6     -0.00601241
         1         1         2         2         4         7      0.00023309
         1         1         2         2         4         8      0.00076151
         1         1         2         2         4         9     -0.00000000
         1         1         2         2         4        10     -0.00191185
         1         1         2         2         4        11     -0.00000000
         1         1         2         2         4        12     -0.00079103
         1         1         2         2         4        13      0.00021967
         1         1         2         2         5         1      0.00000000
         1         1         2         2         5         2     -0.00000000
         1         1         2         2         5         3     -0.00000000
         1         1         2         2         5         4      0.00000000
         1         1         2         2         5         5     -0.00178378
         1         1         2         2         5         6     -0.00000000
         1         1         2         2         5         7     -0.00000000
         1         1         2         2         5         8      0.00000000
         1         1         2         2         5         9     -0.00076211
         1         1         2         2         5        10     -0.00000000
         1         1         2         2         5        11     -0.00021983
         1         1         2         2         5        12     -0.00000000
         1         1         2         2         5        13      0.00000000
         1         1         2         2         6         1     -0.01484277
         1         1         2         2         6         2      0.01564694
         1         1         2         2         6         3     -0.00767218
         1         1         2         2         6         4     -0.00601241
         1         1         2         2         6         5     -0.00000000
         1         1         2         2         6         6     -0.00641044
         1         1         2         2         6         7     -0.00036999
         1         1         2         2         6         8      0.00053634
         1         1         2         2         6         9     -0.00000000
         1         1         2         2         6        10     -0.00223720
         1         1         2         2         6        11     -0.00000000
         1         1         2         2         6        12     -0.00035100
         1         1         2         2         6        13      0.00069868
         1         1         2         2         7         1     -0.00009160
         1         1         2         2         7         2      0.00016031
         1         1         2         2         7         3     -0.00047143
         1         1         2         2         7         4      0.00023309
         1         1         2         2         7         5     -0.00000000
         1         1         2         2         7         6     -0.00036999
         1         1         2         2         7         7     -0.00047471
         1         1         2         2         7         8      0.00003700
         1         1         2         2         7         9      0.00000000
         1         1         2         2         7        10     -0.00000474
         1         1         2         2         7        11      0.00000000
         1         1         2         2         7        12      0.00014987
         1         1         2         2         7        13      0.00016918
         1         1         2         2         8         1      0.00119817
         1         1         2         2         8         2     -0.00172602
         1         1         2         2         8         3      0.00086731
         1         1         2         2         8         4      0.00076151
         1         1         2         2         8         5      0.00000000
         1         1         2         2         8         6      0.00053634
         1         1         2         2         8         7      0.00003700
         1         1         2         2         8         8     -0.00027505
         1         1         2         2         8         9     -0.00000000
         1         1         2         2         8        10     -0.00025650
         1         1         2         2         8        11     -0.00000000
         1         1         2         2         8        12     -0.00024007
         1         1         2         2         8        13     -0.00005191
         1         1         2         2         9         1     -0.00000000
         1         1         2         2         9         2      0.00000000
         1         1         2         2         9         3      0.00000000
         1         1         2         2         9         4     -0.00000000
         1         1         2         2         9         5     -0.00076211
         1         1         2         2         9         6     -0.00000000
         1         1         2         2         9         7      0.00000000
         1         1         2         2         9         8     -0.00000000
         1         1         2         2         9         9     -0.00106399
         1         1         2         2         9        10      0.00000000
         1         1         2         2         9        11     -0.00029922
         1         1         2         2         9        12      0.00000000
         1         1         2         2         9        13     -0.00000000
         1         1         2         2        10         1     -0.00262181
         1         1         2         2        10         2      0.00305862
         1         1         2         2        10         3     -0.00166030
         1         1         2         2        10         4     -0.00191185
         1         1         2         2        10         5     -0.00000000
         1         1         2         2        10         6     -0.00223720
         1         1         2         2        10         7     -0.00000474
         1         1         2         2        10         8     -0.00025650
         1         1         2         2        10         9      0.00000000
         1         1         2         2        10        10     -0.00176709
         1         1         2         2        10        11      0.00000000
         1         1         2         2        10        12     -0.00057895
         1         1         2         2        10        13      0.00047793
         1         1         2         2        11         1     -0.00000000
         1         1         2         2        11         2      0.00000000
         1         1         2         2        11         3      0.00000000
         1         1         2         2        11         4     -0.00000000
         1         1         2         2        11         5     -0.00021983
         1         1         2         2        11         6     -0.00000000
         1         1         2         2        11         7      0.00000000
         1         1         2         2        11         8     -0.00000000
         1         1         2         2        11         9     -0.00029922
         1         1         2         2        11        10      0.00000000
         1         1         2         2        11        11     -0.00041605
         1         1         2         2        11        12      0.00000000
         1         1         2         2        11        13     -0.00000000
         1         1         2         2        12         1     -0.00080226
         1         1         2         2        12         2      0.00088883
         1         1         2         2        12         3     -0.00022837
         1         1         2         2        12         4     -0.00079103
         1         1         2         2        12         5     -0.00000000
         1         1         2         2        12         6     -0.00035100
         1         1         2         2        12         7      0.00014987
         1         1         2         2        12         8     -0.00024007
         1         1         2         2        12         9      0.00000000
         1         1         2         2        12        10     -0.00057895
         1         1         2         2        12        11      0.00000000
         1         1         2         2        12        12     -0.00037946
         1         1         2         2        12        13      0.00006006
         1         1         2         2        13         1      0.00028066
         1         1         2         2        13         2     -0.00044456
         1         1         2         2        13         3      0.00044519
         1         1         2         2        13         4      0.00021967
         1         1         2         2        13         5      0.00000000
         1         1         2         2        13         6      0.00069868
         1         1         2         2        13         7      0.00016918
         1         1         2         2        13         8     -0.00005191
         1         1         2         2        13         9     -0.00000000
         1         1         2         2        13        10      0.00047793
         1         1         2         2        13        11     -0.00000000
         1         1         2         2        13        12      0.00006006
         1         1         2         2        13        13     -0.00042677
         1         1         3         3         1         1     -0.08491337
         1         1         3         3         1         2      0.08081454
         1         1         3         3         1         3     -0.03113444
         1         1         3         3         1         4     -0.02282342
         1         1         3         3         1         5     -0.00000000
         1         1         3         3         1         6     -0.01484277
         1         1         3         3         1         7     -0.00009160
         1         1         3         3         1         8      0.00119817
         1         1         3         3         1         9      0.00000000
         1         1         3         3         1        10     -0.00262181
         1         1         3         3         1        11      0.00000000
         1         1         3         3         1        12     -0.00080226
         1         1         3         3         1        13      0.00028066
         1         1         3         3         2         1      0.08081454
         1         1         3         3         2         2     -0.07801280
         1         1         3         3         2         3      0.03061934
         1         1         3         3         2         4      0.02278842
         1         1         3         3         2         5      0.00000000
         1         1         3         3         2         6      0.01564694
         1         1         3         3         2         7      0.00016031
         1         1         3         3         2         8     -0.00172602
         1         1         3         3         2         9     -0.00000000
         1         1         3         3         2        10      0.00305862
         1         1         3         3         2        11     -0.00000000
         1         1         3         3         2        12      0.00088883
         1         1         3         3         2        13     -0.00044456
         1         1         3         3         3         1     -0.03113444
         1         1         3         3         3         2      0.03061934
         1         1         3         3         3         3     -0.01355490
         1         1         3         3         3         4     -0.00891695
         1         1         3         3         3         5      0.00000000
         1         1         3         3         3         6     -0.00767218
         1         1         3         3         3         7     -0.00047143
         1         1         3         3         3         8      0.00086731
         1         1         3         3         3         9     -0.00000000
         1         1         3         3         3        10     -0.00166030
         1         1         3         3         3        11     -0.00000000
         1         1         3         3         3        12     -0.00022837
         1         1         3         3         3        13      0.00044519
         1         1         3         3         4         1     -0.02282342
         1         1         3         3         4         2      0.02278842
         1         1         3         3         4         3     -0.00891695
         1         1         3         3         4         4     -0.00871294
         1         1         3         3         4         5     -0.00000000
         1         1         3         3         4         6     -0.00601241
         1         1         3         3         4         7      0.00023309
         1         1         3         3         4         8      0.00076151
         1         1         3         3         4         9      0.00000000
         1         1         3         3         4        10     -0.00191185
         1         1         3         3         4        11      0.00000000
         1         1         3         3         4        12     -0.00079103
         1         1         3         3         4        13      0.00021967
         1         1         3         3         5         1     -0.00000000
         1         1         3         3         5         2      0.00000000
         1         1         3         3         5         3      0.00000000
         1         1         3         3         5         4     -0.00000000
         1         1         3         3         5         5     -0.00178378
         1         1         3         3         5         6      0.00000000
         1         1         3         3         5         7      0.00000000
         1         1         3         3         5         8     -0.00000000
         1         1         3         3         5         9     -0.00076211
         1         1         3         3         5        10      0.00000000
         1         1         3         3         5        11     -0.00021983
         1         1         3         3         5        12      0.00000000
         1         1         3         3         5        13     -0.00000000
         1         1         3         3         6         1     -0.01484277
         1         1         3         3         6         2      0.01564694
         1         1         3         3         6         3     -0.00767218
         1         1         3         3         6         4     -0.00601241
         1         1         3         3         6         5      0.00000000
         1         1         3         3         6         6     -0.00641044
         1         1         3         3         6         7     -0.00036999
         1         1         3         3         6         8      0.00053634
         1         1         3         3         6         9      0.00000000
         1         1         3         3         6        10     -0.00223720
         1         1         3         3         6        11      0.00000000
         1         1         3         3         6        12     -0.00035100
         1         1         3         3         6        13      0.00069868
         1         1         3         3         7         1     -0.00009160
         1         1         3         3         7         2      0.00016031
         1         1         3         3         7         3     -0.00047143
         1         1         3         3         7         4      0.00023309
         1         1         3         3         7         5      0.00000000
         1         1         3         3         7         6     -0.00036999
         1         1         3         3         7         7     -0.00047471
         1         1         3         3         7         8      0.00003700
         1         1         3         3         7         9     -0.00000000
         1         1         3         3         7        10     -0.00000474
         1         1         3         3         7        11     -0.00000000
         1         1         3         3         7        12      0.00014987
         1         1         3         3         7        13      0.00016918
         1         1         3         3         8         1      0.00119817
         1         1         3         3         8         2     -0.00172602
         1         1         3         3         8         3      0.00086731
         1         1         3         3         8         4      0.00076151
         1         1         3         3         8         5     -0.00000000
         1         1         3         3         8         6      0.00053634
         1         1         3         3         8         7      0.00003700
         1         1         3         3         8         8     -0.00027505
[...]
         1         1         6         6        13         5      0.00000000
         1         1         6         6        13         6     -0.00001608
         1         1         6         6        13         7     -0.00050910
         1         1         6         6        13         8      0.00014121
         1         1         6         6        13         9     -0.00000000
         1         1         6         6        13        10      0.00000000
         1         1         6         6        13        11     -0.00008486
         1         1         6         6        13        12     -0.00035092
         1         1         6         6        13        13     -0.00038122
         1         1         7         7         1         1     -0.00094338
         1         1         7         7         1         2     -0.00188104
         1         1         7         7         1         3     -0.00004600
         1         1         7         7         1         4     -0.00098972
         1         1         7         7         1         5      0.00000000
         1         1         7         7         1         6      0.00040196
         1         1         7         7         1         7     -0.00026402
         1         1         7         7         1         8      0.00040707
         1         1         7         7         1         9     -0.00000000
         1         1         7         7         1        10      0.00000000
         1         1         7         7         1        11      0.00016562
         1         1         7         7         1        12     -0.00008005
         1         1         7         7         1        13     -0.00010805
         1         1         7         7         2         1     -0.00188104
         1         1         7         7         2         2     -0.00417814
         1         1         7         7         2         3     -0.00003274
         1         1         7         7         2         4     -0.00265170
         1         1         7         7         2         5     -0.00000000
         1         1         7         7         2         6      0.00097411
         1         1         7         7         2         7     -0.00082174
         1         1         7         7         2         8      0.00116154
         1         1         7         7         2         9      0.00000000
         1         1         7         7         2        10     -0.00000000
         1         1         7         7         2        11      0.00043804
         1         1         7         7         2        12     -0.00021469
         1         1         7         7         2        13     -0.00035440
         1         1         7         7         3         1     -0.00004600
         1         1         7         7         3         2     -0.00003274
         1         1         7         7         3         3     -0.00028471
         1         1         7         7         3         4      0.00007264
         1         1         7         7         3         5     -0.00000000
         1         1         7         7         3         6      0.00007918
         1         1         7         7         3         7      0.00002719
         1         1         7         7         3         8     -0.00012612
         1         1         7         7         3         9      0.00000000
         1         1         7         7         3        10      0.00000000
         1         1         7         7         3        11     -0.00016164
         1         1         7         7         3        12      0.00009195
         1         1         7         7         3        13      0.00007169
         1         1         7         7         4         1     -0.00098972
         1         1         7         7         4         2     -0.00265170
         1         1         7         7         4         3      0.00007264
         1         1         7         7         4         4     -0.00254963
         1         1         7         7         4         5      0.00000000
         1         1         7         7         4         6      0.00067379
         1         1         7         7         4         7     -0.00121697
         1         1         7         7         4         8      0.00121970
         1         1         7         7         4         9     -0.00000000
         1         1         7         7         4        10      0.00000000
         1         1         7         7         4        11      0.00042612
         1         1         7         7         4        12     -0.00031360
         1         1         7         7         4        13     -0.00051825
         1         1         7         7         5         1      0.00000000
         1         1         7         7         5         2     -0.00000000
         1         1         7         7         5         3     -0.00000000
         1         1         7         7         5         4      0.00000000
         1         1         7         7         5         5     -0.00071837
         1         1         7         7         5         6     -0.00000000
         1         1         7         7         5         7      0.00000000
         1         1         7         7         5         8      0.00000000
         1         1         7         7         5         9     -0.00021706
         1         1         7         7         5        10     -0.00022415
         1         1         7         7         5        11      0.00000000
         1         1         7         7         5        12      0.00000000
         1         1         7         7         5        13     -0.00000000
         1         1         7         7         6         1      0.00040196
         1         1         7         7         6         2      0.00097411
         1         1         7         7         6         3      0.00007918
         1         1         7         7         6         4      0.00067379
         1         1         7         7         6         5     -0.00000000
         1         1         7         7         6         6     -0.00034444
         1         1         7         7         6         7      0.00022593
         1         1         7         7         6         8     -0.00013737
         1         1         7         7         6         9      0.00000000
         1         1         7         7         6        10     -0.00000000
         1         1         7         7         6        11      0.00008585
         1         1         7         7         6        12     -0.00008856
         1         1         7         7         6        13     -0.00001608
         1         1         7         7         7         1     -0.00026402
         1         1         7         7         7         2     -0.00082174
         1         1         7         7         7         3      0.00002719
         1         1         7         7         7         4     -0.00121697
         1         1         7         7         7         5      0.00000000
         1         1         7         7         7         6      0.00022593
         1         1         7         7         7         7     -0.00117212
         1         1         7         7         7         8      0.00071665
         1         1         7         7         7         9     -0.00000000
         1         1         7         7         7        10     -0.00000000
         1         1         7         7         7        11      0.00003806
         1         1         7         7         7        12     -0.00038310
         1         1         7         7         7        13     -0.00050910
         1         1         7         7         8         1      0.00040707
         1         1         7         7         8         2      0.00116154
         1         1         7         7         8         3     -0.00012612
         1         1         7         7         8         4      0.00121970
         1         1         7         7         8         5      0.00000000
         1         1         7         7         8         6     -0.00013737
         1         1         7         7         8         7      0.00071665
         1         1         7         7         8         8     -0.00033677
         1         1         7         7         8         9     -0.00000000
         1         1         7         7         8        10      0.00000000
         1         1         7         7         8        11      0.00007852
         1         1         7         7         8        12      0.00005159
         1         1         7         7         8        13      0.00014121
         1         1         7         7         9         1     -0.00000000
         1         1         7         7         9         2      0.00000000
         1         1         7         7         9         3      0.00000000
         1         1         7         7         9         4     -0.00000000
         1         1         7         7         9         5     -0.00021706
         1         1         7         7         9         6      0.00000000
         1         1         7         7         9         7     -0.00000000
         1         1         7         7         9         8     -0.00000000
         1         1         7         7         9         9     -0.00040134
         1         1         7         7         9        10     -0.00024861
         1         1         7         7         9        11     -0.00000000
         1         1         7         7         9        12     -0.00000000
         1         1         7         7         9        13      0.00000000
         1         1         7         7        10         1      0.00000000
         1         1         7         7        10         2     -0.00000000
         1         1         7         7        10         3      0.00000000
         1         1         7         7        10         4      0.00000000
         1         1         7         7        10         5     -0.00022415
         1         1         7         7        10         6     -0.00000000
         1         1         7         7        10         7     -0.00000000
         1         1         7         7        10         8      0.00000000
         1         1         7         7        10         9     -0.00024861
         1         1         7         7        10        10     -0.00043590
         1         1         7         7        10        11      0.00000000
         1         1         7         7        10        12      0.00000000
         1         1         7         7        10        13     -0.00000000
         1         1         7         7        11         1      0.00016562
         1         1         7         7        11         2      0.00043804
         1         1         7         7        11         3     -0.00016164
         1         1         7         7        11         4      0.00042612
         1         1         7         7        11         5      0.00000000
         1         1         7         7        11         6      0.00008585
         1         1         7         7        11         7      0.00003806
         1         1         7         7        11         8      0.00007852
         1         1         7         7        11         9     -0.00000000
         1         1         7         7        11        10      0.00000000
         1         1         7         7        11        11     -0.00011358
         1         1         7         7        11        12     -0.00005098
         1         1         7         7        11        13     -0.00008486
         1         1         7         7        12         1     -0.00008005
         1         1         7         7        12         2     -0.00021469
         1         1         7         7        12         3      0.00009195
         1         1         7         7        12         4     -0.00031360
         1         1         7         7        12         5      0.00000000
         1         1         7         7        12         6     -0.00008856
         1         1         7         7        12         7     -0.00038310
         1         1         7         7        12         8      0.00005159
         1         1         7         7        12         9     -0.00000000
         1         1         7         7        12        10      0.00000000
         1         1         7         7        12        11     -0.00005098
         1         1         7         7        12        12     -0.00047185
         1         1         7         7        12        13     -0.00035092
         1         1         7         7        13         1     -0.00010805
         1         1         7         7        13         2     -0.00035440
         1         1         7         7        13         3      0.00007169
         1         1         7         7        13         4     -0.00051825
         1         1         7         7        13         5     -0.00000000
         1         1         7         7        13         6     -0.00001608
         1         1         7         7        13         7     -0.00050910
         1         1         7         7        13         8      0.00014121
         1         1         7         7        13         9      0.00000000
         1         1         7         7        13        10     -0.00000000
         1         1         7         7        13        11     -0.00008486
         1         1         7         7        13        12     -0.00035092
         1         1         7         7        13        13     -0.00038122
         1         1         8         8         1         1     -0.00122859
         1         1         8         8         1         2      0.00020333
         1         1         8         8         1         3     -0.00086093
         1         1         8         8         1         4      0.00000000
         1         1         8         8         1         5     -0.00019156
         1         1         8         8         1         6      0.00006346
         1         1         8         8         1         7     -0.00011478
         1         1         8         8         2         1      0.00020333
         1         1         8         8         2         2     -0.00036984
         1         1         8         8         2         3      0.00030127
         1         1         8         8         2         4     -0.00000000
         1         1         8         8         2         5      0.00010529
         1         1         8         8         2         6      0.00009808
         1         1         8         8         2         7      0.00000868
         1         1         8         8         3         1     -0.00086093
         1         1         8         8         3         2      0.00030127
         1         1         8         8         3         3     -0.00139984
         1         1         8         8         3         4      0.00000000
         1         1         8         8         3         5     -0.00047491
         1         1         8         8         3         6     -0.00015942
         1         1         8         8         3         7     -0.00031721
         1         1         8         8         4         1      0.00000000
         1         1         8         8         4         2     -0.00000000
         1         1         8         8         4         3      0.00000000
         1         1         8         8         4         4     -0.00038888
         1         1         8         8         4         5     -0.00000000
         1         1         8         8         4         6      0.00000000
         1         1         8         8         4         7     -0.00000000
         1         1         8         8         5         1     -0.00019156
         1         1         8         8         5         2      0.00010529
         1         1         8         8         5         3     -0.00047491
         1         1         8         8         5         4     -0.00000000
         1         1         8         8         5         5     -0.00034341
         1         1         8         8         5         6     -0.00022344
         1         1         8         8         5         7     -0.00024443
         1         1         8         8         6         1      0.00006346
         1         1         8         8         6         2      0.00009808
         1         1         8         8         6         3     -0.00015942
         1         1         8         8         6         4      0.00000000
         1         1         8         8         6         5     -0.00022344
         1         1         8         8         6         6     -0.00033341
         1         1         8         8         6         7     -0.00017872
         1         1         8         8         7         1     -0.00011478
         1         1         8         8         7         2      0.00000868
         1         1         8         8         7         3     -0.00031721
         1         1         8         8         7         4     -0.00000000
         1         1         8         8         7         5     -0.00024443
         1         1         8         8         7         6     -0.00017872
         1         1         8         8         7         7     -0.00037546


 RESULTS
 =======

  Reference energy                    -14.871275922556
  CCD singlet pair energy              -0.032107254927
  CCD triplet pair energy               0.000000000000
  CCD correlation energy               -0.032107254927

 !CCD total energy                    -14.903383177483

 Timing summary (sec):

 STEP                 CPU(USER)    SYS     CPU(TOT)    WALL
 Transformation          0.02      0.00      0.02      0.01
 CCSD iterations         0.30      0.05      0.35      0.35

 Program statistics:

 Available memory in ccsd:                39999196
 Min. memory needed in ccsd:                 25974
 Max. memory used in ccsd:                   25974
 Max. memory used in cckext:                 56915 (29 integral passes)



 **********************************************************************************************************************************
 DATASETS  * FILE   NREC   LENGTH (MB)   RECORD NAMES
              1      20       39.86       500      700      610      900      950      970     1000      129      960     1100   
                                          VAR     GEOM    BASINP   SYMINP    ZMAT    AOBASIS   BASIS     P2S    ABASIS      S 
                                         1400     1410     1200     1210     1080     1600     1650     1300     1700     1380   
                                           T        V       H0       H01     AOSYM     SMH    MOLCAS    ERIS     OPER     JKOP   

              3       5       14.82       500      610      700     1000     2100   
                                          VAR    BASINP    GEOM     BASIS     RHF  

 PROGRAMS   *        TOTAL      CCSD       INT   RESTART
 CPU TIMES  *         1.46      0.39      0.95      0.02
 REAL TIME  *         1.72 SEC
 DISK USED  *        86.27 MB
 **********************************************************************************************************************************
 Molecular orbitals read from record     2100.3  Type=RHF/CANONICAL (state 1.1)
 Occupation numbers read from record     2100.3  Type=RHF/RHF (state 1.1)
 Orbital energies read from record       2100.3  Type=RHF/CANONICAL (state 1.1)
 Redundancy group numbers read from rec  2100.3  Type=RHF/RHF (state 1.1)

 CCSD/cc-pVQZ energy=    -14.903383177483

            CCSD
    -14.90338318
 **********************************************************************************************************************************
 Molpro calculation terminated
