
 Primary working directories    : /scr/yuriaoto/job.023452/molpro.juRtsxsSoR
 Secondary working directories  : /scr/yuriaoto/job.023452/molpro.juRtsxsSoR
 Wavefunction directory         : /scr/yuriaoto/job.023452/
 Main file repository           : /scr/yuriaoto/job.023452/molpro.juRtsxsSoR/

 id        : yuriaoto

 Nodes             nprocs
 t-rex.ufabc.int.br    1

 Using customized tuning parameters: mindgm=8; mindgv=16; mindgc=1; mindgr=1; noblas=0; minvec=7
 default implementation of scratch files=df  


 Variables initialized (933), CPU time= 0.00 sec
 ***,
 memory,40,m
 gprint,orbital,basis,civector
 gthresh,thrprint=0,printci=0.0
 file,3,wfu.dat,old
 
 {ccsd,CC_NORM_MAX=10.0
 thresh,printci=0.0,ENERGY=1.0E-10,COEFF=1.0E-12
 print,ref=1
 core,0
 wf,6,1,0;
 }
 
 Commands  initialized (760), CPU time= 0.01 sec, 617 directives.
 Default parameters read. Elapsed time= 0.03 sec

 Checking input...
 Passed
1


                                         ***  PROGRAM SYSTEM MOLPRO  ***
                                       Copyright, TTI GmbH Stuttgart, 2015
                                    Version 2019.2 linked Abr  7 2019 15:10:35


 **********************************************************************************************************************************
 LABEL *                                                                                 
  64 bit serial version                                                                  DATE: 02-Jun-20          TIME: 00:39:30  
 **********************************************************************************************************************************

 SHA1:             3a8a58c585c929645742fb5a1b7541a4ad1da699
 **********************************************************************************************************************************


 THRESHOLDS:

 ZERO    =  1.00D-12  ONEINT  =  1.00D-12  TWOINT  =  1.00D-11  PREFAC  =  1.00D-14  XXXXXX  =  1.00D-09  EORDER  =  1.00D-04
 ENERGY  =  0.00D+00  ETEST   =  0.00D+00  EDENS   =  0.00D+00  THRDEDEF=  1.00D-06  GRADIENT=  1.00D-02  STEP    =  1.00D-03
 ORBITAL =  1.00D-05  CIVEC   =  1.00D-05  COEFF   =  1.00D-04  PRINTCI =  0.00D+00  PUNCHCI =  9.90D+01  OPTGRAD =  3.00D-04
 OPTENERG=  1.00D-06  OPTSTEP =  3.00D-04  THRGRAD =  1.00D-10  COMPRESS=  1.00D-11  VARMIN  =  1.00D-07  VARMAX  =  1.00D-03
 THRDOUB =  0.00D+00  THRDIV  =  1.00D-05  THRRED  =  1.00D-07  THRPSP  =  1.00D+00  THRDC   =  1.00D-10  THRCS   =  1.00D-10
 THRNRM  =  1.00D-08  THREQ   =  0.00D+00  THRDE   =  1.00D+00  THRREF  =  1.00D-05  SPARFAC =  1.00D+00  THRDLP  =  1.00D-07
 THRDIA  =  1.00D-10  THRDLS  =  1.00D-07  THRGPS  =  0.00D+00  THRKEX  =  0.00D+00  THRDIS  =  2.00D-01  THRVAR  =  1.00D-10
 THRLOC  =  1.00D-06  THRGAP  =  1.00D-06  THRLOCT = -1.00D+00  THRGAPT = -1.00D+00  THRORB  =  1.00D-06  THRMLTP =  0.00D+00
 THRCPQCI=  1.00D-10  KEXTA   =  0.00D+00  THRCOARS=  0.00D+00  SYMTOL  =  1.00D-06  GRADTOL =  1.00D-06  THROVL  =  1.00D-08
 THRORTH =  1.00D-08  GRID    =  1.00D-06  GRIDMAX =  1.00D-03  DTMAX   =  0.00D+00  THROCCDE=  1.00D-01  THROCCDE=  1.00D-01
 THRPRINT=  0.00D+00


 Variable memory set to   40000000 words,  buffer space 



 Permanent file  3  wfu.dat  assigned.  Implementation=df    Size= 14.14 MB


 PROGRAM * RESTART 


 Reading variables from file 3

 _FNUC           =      0.00000000
 _BASIS          =    CC-PVQZ
 _NELEC          =      6.00000000
 _PROGRAM        =    RHF-SCF
 _DMX_SCF        =      0.00000000
 _DMY_SCF        =      0.00000000
 _DMZ_SCF        =      0.00000000
 _HOMO           =      2.10000000
 _EHOMO          =     -0.18246531
 _LUMO           =      2.50000000
 _ELUMO          =      0.00555584
 _ENERGY         =    -14.87127592
 _ENERGY_METHOD  =    RHF
 _ENERGY_BASIS   =    cc-pVQZ
 _ENUC           =      1.80000000
 _EPS1(1:17)     =     -2.45275542    -0.18246531     0.03118128     0.07675564     0.10329663     0.17513734
                        0.25175330     0.28508831     0.35792933     0.45872422     0.56018831     0.59918038
                        0.62755650     1.11239813     1.15386160     1.19142153     1.32188143
 _EPS2(1:13)     =      0.02433195     0.09353741     0.21068870     0.32226550     0.42191244     0.54628859
                        0.59819740     1.10083269     1.15221110     1.20763857     1.21042280     1.40783887
                        1.71444622
 _EPS3(1:13)     =      0.02433195     0.09353741     0.21068870     0.32226550     0.42191244     0.54628859
                        0.59819740     1.10083269     1.15221110     1.20763857     1.21042280     1.40783887
                        1.71444622
 _EPS4(1:7)      =      0.17513734     0.45872422     0.56018831     1.15386160     1.19142153     1.33151704
                        1.47724476
 _EPS5(1:16)     =     -2.45238917     0.00555584     0.05165406     0.11717968     0.16988016     0.22773801
                        0.28045093     0.41754488     0.49749500     0.57413233     0.61243569     0.63567405
                        0.88007748     1.26225432     1.33801999     1.36959713
 _EPS6(1:13)     =      0.04825428     0.13557655     0.27933523     0.33487951     0.49486051     0.59572254
                        0.76334313     1.19733327     1.25823163     1.41087078     1.41960646     1.59670947
                        2.17132043
 _EPS7(1:13)     =      0.04825428     0.13557655     0.27933523     0.33487951     0.49486051     0.59572254
                        0.76334313     1.19733327     1.25823163     1.41087078     1.41960646     1.59670947
                        2.17132043
 _EPS8(1:7)      =      0.22773801     0.57413233     0.63567405     1.26225432     1.33801999     1.49625433
                        1.70967926
 _IPROC_MPP      =      0.00000000
 _IPROC_MPPX     =      0.00000000
 _ORBITAL        =   2100.30000000
 _STATUS         =      1.00000000
 _DATE           =    10-Feb-20
 _LASTORB        =    RHF
 _OUTPUT         =    /scr/yuriaoto/job.022758/RHF.xml
 _PGROUP         =    D2h 
 _TIME           =    10:56:03
 R               =      5.00000000

 Geometry written to block  1 of record 700


 **********************************************************************************************************************************
 DATASETS  * FILE   NREC   LENGTH (MB)   RECORD NAMES
              3       5       14.82       500      610      700     1000     2100   
                                          VAR    BASINP    GEOM     BASIS     RHF  

 PROGRAMS   *        TOTAL   RESTART
 CPU TIMES  *         0.09      0.01
 REAL TIME  *         0.11 SEC
 DISK USED  *        26.89 MB
 **********************************************************************************************************************************


 Recomputing integrals since basis changed


 Using spherical harmonics

 Library entry LI     S cc-pVQZ              selected for orbital group  1
 Library entry LI     P cc-pVQZ              selected for orbital group  1
 Library entry LI     D cc-pVQZ              selected for orbital group  1
 Library entry LI     F cc-pVQZ              selected for orbital group  1
 Library entry LI     G cc-pVQZ              selected for orbital group  1


 PROGRAM * SEWARD (Integral evaluation for generally contracted gaussian basis sets)     Author: Roland Lindh, 1990

 Geometry written to block  1 of record 700

 Orientation using atomic masses  
 Molecule type: Linear
 User-specified symmetry elements: X,Y,Z
 Symmetry elements: X,Y,Z
 Rotational constants:      20.8009354     20.8009354      0.0000000 GHz  (calculated with average atomic masses)

 Point group  D2h 



 ATOMIC COORDINATES

 NR  ATOM    CHARGE       X              Y              Z

   1  LI1     3.00    0.000000000    0.000000000   -2.500000000
   2  LI2     3.00    0.000000000    0.000000000    2.500000000

 Bond lengths in Bohr (Angstrom)

 1-2  5.000000000
     ( 2.645886055)


 BASIS DATA

   Nr Sym  Nuc  Type         Exponents   Contraction coefficients

    1.1 Ag    1  1s        6601.000000     0.000117   -0.000018    0.000000    0.000000    0.000000
    2.1 Ag    2  1s         989.700000     0.000911   -0.000142    0.000000    0.000000    0.000000
    3.1 Ag                  225.700000     0.004728   -0.000741    0.000000    0.000000    0.000000
    4.1 Ag                   64.290000     0.019197   -0.003020    0.000000    0.000000    0.000000
    5.1 Ag                   21.180000     0.063047   -0.010123    0.000000    0.000000    0.000000
                              7.724000     0.163208   -0.027094    0.000000    0.000000    0.000000
                              3.003000     0.314827   -0.057359    0.000000    0.000000    0.000000
                              1.212000     0.393936   -0.093895    0.000000    0.000000    0.000000
                              0.493000     0.196918   -0.121091    0.000000    0.000000    0.000000
                              0.095150     0.009997    0.276608    1.000000    0.000000    0.000000
                              0.047910    -0.005402    0.549548    0.000000    1.000000    0.000000
                              0.022200     0.001704    0.277385    0.000000    0.000000    1.000000
    6.1 Ag    1  2pz          6.250000     0.003388    0.000000    0.000000    0.000000
    7.1 Ag    2 -2pz          1.370000     0.019316    0.000000    0.000000    0.000000
    8.1 Ag                    0.367200     0.079104    0.000000    0.000000    0.000000
    9.1 Ag                    0.119200     0.274095    1.000000    0.000000    0.000000
                              0.044740     0.519488    0.000000    1.000000    0.000000
                              0.017950     0.284423    0.000000    0.000000    1.000000
   10.1 Ag    1  3d0          0.335200     1.000000
              2  3d0   
   11.1 Ag    1  3d2+         0.335200     1.000000
              2  3d2+  
   12.1 Ag    1  3d0          0.148200     1.000000
              2  3d0   
   13.1 Ag    1  3d2+         0.148200     1.000000
              2  3d2+  
   14.1 Ag    1  3d0          0.065600     1.000000
              2  3d0   
   15.1 Ag    1  3d2+         0.065600     1.000000
              2  3d2+  
   16.1 Ag    1  4f0          0.228000     1.000000
              2 -4f0   
   17.1 Ag    1  4f2+         0.228000     1.000000
              2 -4f2+  
   18.1 Ag    1  4f0          0.113500     1.000000
              2 -4f0   
   19.1 Ag    1  4f2+         0.113500     1.000000
              2 -4f2+  
   20.1 Ag    1  5g0          0.231900     1.000000
              2  5g0   
   21.1 Ag    1  5g4+         0.231900     1.000000
              2  5g4+  
   22.1 Ag    1  5g2+         0.231900     1.000000
              2  5g2+  
    1.2 B3u   1  2px          6.250000     0.003388    0.000000    0.000000    0.000000
    2.2 B3u   2  2px          1.370000     0.019316    0.000000    0.000000    0.000000
    3.2 B3u                   0.367200     0.079104    0.000000    0.000000    0.000000
    4.2 B3u                   0.119200     0.274095    1.000000    0.000000    0.000000
                              0.044740     0.519488    0.000000    1.000000    0.000000
                              0.017950     0.284423    0.000000    0.000000    1.000000
    5.2 B3u   1  3d1+         0.335200     1.000000
              2 -3d1+  
    6.2 B3u   1  3d1+         0.148200     1.000000
              2 -3d1+  
    7.2 B3u   1  3d1+         0.065600     1.000000
              2 -3d1+  
    8.2 B3u   1  4f1+         0.228000     1.000000
              2  4f1+  
    9.2 B3u   1  4f3+         0.228000     1.000000
              2  4f3+  
   10.2 B3u   1  4f1+         0.113500     1.000000
              2  4f1+  
   11.2 B3u   1  4f3+         0.113500     1.000000
              2  4f3+  
   12.2 B3u   1  5g1+         0.231900     1.000000
              2 -5g1+  
   13.2 B3u   1  5g3+         0.231900     1.000000
              2 -5g3+  
    1.3 B2u   1  2py          6.250000     0.003388    0.000000    0.000000    0.000000
    2.3 B2u   2  2py          1.370000     0.019316    0.000000    0.000000    0.000000
    3.3 B2u                   0.367200     0.079104    0.000000    0.000000    0.000000
    4.3 B2u                   0.119200     0.274095    1.000000    0.000000    0.000000
                              0.044740     0.519488    0.000000    1.000000    0.000000
                              0.017950     0.284423    0.000000    0.000000    1.000000
    5.3 B2u   1  3d1-         0.335200     1.000000
              2 -3d1-  
    6.3 B2u   1  3d1-         0.148200     1.000000
              2 -3d1-  
    7.3 B2u   1  3d1-         0.065600     1.000000
              2 -3d1-  
    8.3 B2u   1  4f1-         0.228000     1.000000
              2  4f1-  
    9.3 B2u   1  4f3-         0.228000     1.000000
              2  4f3-  
   10.3 B2u   1  4f1-         0.113500     1.000000
              2  4f1-  
   11.3 B2u   1  4f3-         0.113500     1.000000
              2  4f3-  
   12.3 B2u   1  5g1-         0.231900     1.000000
              2 -5g1-  
   13.3 B2u   1  5g3-         0.231900     1.000000
              2 -5g3-  
    1.4 B1g   1  3d2-         0.335200     1.000000
              2  3d2-  
    2.4 B1g   1  3d2-         0.148200     1.000000
              2  3d2-  
    3.4 B1g   1  3d2-         0.065600     1.000000
              2  3d2-  
    4.4 B1g   1  4f2-         0.228000     1.000000
              2 -4f2-  
    5.4 B1g   1  4f2-         0.113500     1.000000
              2 -4f2-  
    6.4 B1g   1  5g2-         0.231900     1.000000
              2  5g2-  
    7.4 B1g   1  5g4-         0.231900     1.000000
              2  5g4-  
    1.5 B1u   1  1s        6601.000000     0.000117   -0.000018    0.000000    0.000000    0.000000
    2.5 B1u   2 -1s         989.700000     0.000911   -0.000142    0.000000    0.000000    0.000000
    3.5 B1u                 225.700000     0.004728   -0.000741    0.000000    0.000000    0.000000
    4.5 B1u                  64.290000     0.019197   -0.003020    0.000000    0.000000    0.000000
    5.5 B1u                  21.180000     0.063047   -0.010123    0.000000    0.000000    0.000000
                              7.724000     0.163208   -0.027094    0.000000    0.000000    0.000000
                              3.003000     0.314827   -0.057359    0.000000    0.000000    0.000000
                              1.212000     0.393936   -0.093895    0.000000    0.000000    0.000000
                              0.493000     0.196918   -0.121091    0.000000    0.000000    0.000000
                              0.095150     0.009997    0.276608    1.000000    0.000000    0.000000
                              0.047910    -0.005402    0.549548    0.000000    1.000000    0.000000
                              0.022200     0.001704    0.277385    0.000000    0.000000    1.000000
    6.5 B1u   1  2pz          6.250000     0.003388    0.000000    0.000000    0.000000
    7.5 B1u   2  2pz          1.370000     0.019316    0.000000    0.000000    0.000000
    8.5 B1u                   0.367200     0.079104    0.000000    0.000000    0.000000
    9.5 B1u                   0.119200     0.274095    1.000000    0.000000    0.000000
                              0.044740     0.519488    0.000000    1.000000    0.000000
                              0.017950     0.284423    0.000000    0.000000    1.000000
   10.5 B1u   1  3d0          0.335200     1.000000
              2 -3d0   
   11.5 B1u   1  3d2+         0.335200     1.000000
              2 -3d2+  
   12.5 B1u   1  3d0          0.148200     1.000000
              2 -3d0   
   13.5 B1u   1  3d2+         0.148200     1.000000
              2 -3d2+  
   14.5 B1u   1  3d0          0.065600     1.000000
              2 -3d0   
   15.5 B1u   1  3d2+         0.065600     1.000000
              2 -3d2+  
   16.5 B1u   1  4f0          0.228000     1.000000
              2  4f0   
   17.5 B1u   1  4f2+         0.228000     1.000000
              2  4f2+  
   18.5 B1u   1  4f0          0.113500     1.000000
              2  4f0   
   19.5 B1u   1  4f2+         0.113500     1.000000
              2  4f2+  
   20.5 B1u   1  5g0          0.231900     1.000000
              2 -5g0   
   21.5 B1u   1  5g4+         0.231900     1.000000
              2 -5g4+  
   22.5 B1u   1  5g2+         0.231900     1.000000
              2 -5g2+  
    1.6 B2g   1  2px          6.250000     0.003388    0.000000    0.000000    0.000000
    2.6 B2g   2 -2px          1.370000     0.019316    0.000000    0.000000    0.000000
    3.6 B2g                   0.367200     0.079104    0.000000    0.000000    0.000000
    4.6 B2g                   0.119200     0.274095    1.000000    0.000000    0.000000
                              0.044740     0.519488    0.000000    1.000000    0.000000
                              0.017950     0.284423    0.000000    0.000000    1.000000
    5.6 B2g   1  3d1+         0.335200     1.000000
              2  3d1+  
    6.6 B2g   1  3d1+         0.148200     1.000000
              2  3d1+  
    7.6 B2g   1  3d1+         0.065600     1.000000
              2  3d1+  
    8.6 B2g   1  4f1+         0.228000     1.000000
              2 -4f1+  
    9.6 B2g   1  4f3+         0.228000     1.000000
              2 -4f3+  
   10.6 B2g   1  4f1+         0.113500     1.000000
              2 -4f1+  
   11.6 B2g   1  4f3+         0.113500     1.000000
              2 -4f3+  
   12.6 B2g   1  5g1+         0.231900     1.000000
              2  5g1+  
   13.6 B2g   1  5g3+         0.231900     1.000000
              2  5g3+  
    1.7 B3g   1  2py          6.250000     0.003388    0.000000    0.000000    0.000000
    2.7 B3g   2 -2py          1.370000     0.019316    0.000000    0.000000    0.000000
    3.7 B3g                   0.367200     0.079104    0.000000    0.000000    0.000000
    4.7 B3g                   0.119200     0.274095    1.000000    0.000000    0.000000
                              0.044740     0.519488    0.000000    1.000000    0.000000
                              0.017950     0.284423    0.000000    0.000000    1.000000
    5.7 B3g   1  3d1-         0.335200     1.000000
              2  3d1-  
    6.7 B3g   1  3d1-         0.148200     1.000000
              2  3d1-  
    7.7 B3g   1  3d1-         0.065600     1.000000
              2  3d1-  
    8.7 B3g   1  4f1-         0.228000     1.000000
              2 -4f1-  
    9.7 B3g   1  4f3-         0.228000     1.000000
              2 -4f3-  
   10.7 B3g   1  4f1-         0.113500     1.000000
              2 -4f1-  
   11.7 B3g   1  4f3-         0.113500     1.000000
              2 -4f3-  
   12.7 B3g   1  5g1-         0.231900     1.000000
              2  5g1-  
   13.7 B3g   1  5g3-         0.231900     1.000000
              2  5g3-  
    1.8 Au    1  3d2-         0.335200     1.000000
              2 -3d2-  
    2.8 Au    1  3d2-         0.148200     1.000000
              2 -3d2-  
    3.8 Au    1  3d2-         0.065600     1.000000
              2 -3d2-  
    4.8 Au    1  4f2-         0.228000     1.000000
              2  4f2-  
    5.8 Au    1  4f2-         0.113500     1.000000
              2  4f2-  
    6.8 Au    1  5g2-         0.231900     1.000000
              2 -5g2-  
    7.8 Au    1  5g4-         0.231900     1.000000
              2 -5g4-  

 NUCLEAR CHARGE:                    6
 NUMBER OF PRIMITIVE AOS:         166
 NUMBER OF SYMMETRY AOS:          136
 NUMBER OF CONTRACTIONS:          110   (   22Ag  +   13B3u +   13B2u +    7B1g +   22B1u +   13B2g +   13B3g +    7Au  )
 NUMBER OF CORE ORBITALS:           2   (    1Ag  +    0B3u +    0B2u +    0B1g +    1B1u +    0B2g +    0B3g +    0Au  )
 NUMBER OF VALENCE ORBITALS:        8   (    2Ag  +    1B3u +    1B2u +    0B1g +    2B1u +    1B2g +    1B3g +    0Au  )


 NUCLEAR REPULSION ENERGY    1.80000000

 EXTRA SYMMETRY OF AOS IN SYMMETRY 1:   1 1 1 1 1 1 1 1 1 1   2 1 2 1 2 1 2 1 2 1   3 2
 EXTRA SYMMETRY OF AOS IN SYMMETRY 2:   1 1 1 1 1 1 1 1 2 1   2 1 2
 EXTRA SYMMETRY OF AOS IN SYMMETRY 3:   1 1 1 1 1 1 1 1 2 1   2 1 2
 EXTRA SYMMETRY OF AOS IN SYMMETRY 4:   1 1 1 1 1 1 2
 EXTRA SYMMETRY OF AOS IN SYMMETRY 5:   1 1 1 1 1 1 1 1 1 1   2 1 2 1 2 1 2 1 2 1   3 2
 EXTRA SYMMETRY OF AOS IN SYMMETRY 6:   1 1 1 1 1 1 1 1 2 1   2 1 2
 EXTRA SYMMETRY OF AOS IN SYMMETRY 7:   1 1 1 1 1 1 1 1 2 1   2 1 2
 EXTRA SYMMETRY OF AOS IN SYMMETRY 8:   1 1 1 1 1 1 2

 Eigenvalues of metric

         1 0.994E-03 0.132E-02 0.325E-02 0.199E-01 0.547E-01 0.104E+00 0.149E+00 0.239E+00
         2 0.291E-02 0.573E-01 0.850E-01 0.172E+00 0.265E+00 0.482E+00 0.871E+00 0.113E+01
         3 0.291E-02 0.573E-01 0.850E-01 0.172E+00 0.265E+00 0.482E+00 0.871E+00 0.113E+01
         4 0.104E+00 0.239E+00 0.742E+00 0.106E+01 0.121E+01 0.202E+01 0.331E+01
         5 0.207E-03 0.332E-03 0.104E-02 0.290E-02 0.748E-02 0.380E-01 0.611E-01 0.743E-01
         6 0.112E-02 0.647E-02 0.162E-01 0.619E-01 0.145E+00 0.190E+00 0.218E+00 0.538E+00
         7 0.112E-02 0.647E-02 0.162E-01 0.619E-01 0.145E+00 0.190E+00 0.218E+00 0.538E+00
         8 0.611E-01 0.743E-01 0.274E+00 0.541E+00 0.945E+00 0.128E+01 0.214E+01


 Contracted 2-electron integrals neglected if value below      1.0D-11
 AO integral compression algorithm  1   Integral accuracy      1.0D-11

     15.729 MB (compressed) written to integral file ( 45.3%)


 NUMBER OF SORTED TWO-ELECTRON INTEGRALS:    2445884.     BUFFER LENGTH:  32768
 NUMBER OF SEGMENTS:   1  SEGMENT LENGTH:    2445884      RECORD LENGTH: 524288

 Memory used in sort:       3.00 MW

 SORT1 READ     4396992. AND WROTE     1896858. INTEGRALS IN      6 RECORDS. CPU TIME:     0.11 SEC, REAL TIME:     0.14 SEC
 SORT2 READ     1896858. AND WROTE     2445884. INTEGRALS IN     60 RECORDS. CPU TIME:     0.25 SEC, REAL TIME:     0.28 SEC

 FILE SIZES:   FILE 1:    46.0 MBYTE,  FILE 4:    25.2 MBYTE,   TOTAL:     71.2 MBYTE

 OPERATOR DM      FOR CENTER  0  COORDINATES:    0.000000    0.000000    0.000000


 **********************************************************************************************************************************
 DATASETS  * FILE   NREC   LENGTH (MB)   RECORD NAMES
              1      19       39.16       500      700      610      900      950      970     1000      129      960     1100   
                                          VAR     GEOM    BASINP   SYMINP    ZMAT    AOBASIS   BASIS     P2S    ABASIS      S 
                                         1400     1410     1200     1210     1080     1600     1650     1300     1700   
                                           T        V       H0       H01     AOSYM     SMH    MOLCAS    ERIS     OPER   

              3       5       14.82       500      610      700     1000     2100   
                                          VAR    BASINP    GEOM     BASIS     RHF  

 PROGRAMS   *        TOTAL       INT   RESTART
 CPU TIMES  *         1.22      1.13      0.01
 REAL TIME  *         1.45 SEC
 DISK USED  *        86.27 MB
 **********************************************************************************************************************************


 PROGRAM * CCSD (Closed-shell coupled cluster)     Authors: C. Hampel, H.-J. Werner, 1991, M. Deegan, P.J. Knowles, 1992


 Input parameters for THRESH:

 ENERGY   =    1.00D-10
 COEFF    =    1.00D-12
 PRINTCI  =    0.000000
 THRPRINT =    0.000000

 Convergence thresholds:  THRVAR = 1.00D-24  THRDEN = 1.00D-10

 Number of closed-shell orbitals:   3 (   2   0   0   0   1   0   0   0 )
 Number of external orbitals:     107 (  20  13  13   7  21  13  13   7 )

 Molecular orbitals read from record     2100.3  Type=RHF/CANONICAL (state 1.1)

 Number of N-1 electron functions:               3
 Number of N-2 electron functions:               6
 Number of singly external CSFs:                61
 Number of doubly external CSFs:              7426
 Total number of CSFs:                        7488

 Length of J-op  integral file:               0.00 MB
 Length of K-op  integral file:               0.15 MB
 Length of 3-ext integral record:             0.00 MB

 Integral transformation finished. Total CPU:   0.02 sec, npass=  1  Memory used:   0.26 MW

 Reference energy:                    -14.87127592

 MP2 singlet pair energy:              -0.05337723
 MP2 triplet pair energy:              -0.00151225
 MP2 correlation energy:               -0.05488948
 MP2 total energy:                    -14.92616541

 SCS-MP2 correlation energy:           -0.06499364   (PS=  1.200000  PT=  0.333333)
 SCS-MP2 total energy:                -14.93626956

 ITER.      SQ.NORM     CORR.ENERGY   TOTAL ENERGY   ENERGY CHANGE        DEN1      VAR(S)    VAR(P)  DIIS     TIME  TIME/IT
   1      1.05348983    -0.06587155   -14.93714748    -0.01098207    -0.00674284  0.24D-03  0.24D-02  1  1     0.07     0.04
   2      1.07138160    -0.06839596   -14.93967188    -0.00252440    -0.00391209  0.74D-04  0.85D-03  2  2     0.10     0.04
   3      1.09037494    -0.06932739   -14.94060331    -0.00093143    -0.00254413  0.11D-04  0.14D-03  3  3     0.13     0.04
   4      1.10192765    -0.06940119   -14.94067712    -0.00007380    -0.00119052  0.11D-05  0.17D-04  4  4     0.15     0.03
   5      1.10368777    -0.06939546   -14.94067138     0.00000574    -0.00008268  0.35D-06  0.32D-05  5  5     0.17     0.03
   6      1.10442614    -0.06941521   -14.94069114    -0.00001976    -0.00004088  0.14D-06  0.56D-06  6  6     0.20     0.03
   7      1.10457240    -0.06941365   -14.94068957     0.00000156    -0.00000482  0.73D-07  0.10D-06  6  1     0.22     0.03
   8      1.10463817    -0.06941219   -14.94068811     0.00000147    -0.00000434  0.29D-07  0.23D-07  6  2     0.24     0.03
   9      1.10465690    -0.06941229   -14.94068822    -0.00000011    -0.00000069  0.89D-08  0.40D-08  6  3     0.25     0.03
  10      1.10465963    -0.06941218   -14.94068810     0.00000011    -0.00000010  0.15D-08  0.10D-08  6  4     0.27     0.03
  11      1.10465788    -0.06941220   -14.94068813    -0.00000002     0.00000008  0.18D-09  0.14D-09  6  5     0.29     0.03
  12      1.10465651    -0.06941219   -14.94068811     0.00000001     0.00000008  0.17D-10  0.35D-10  6  6     0.31     0.03
  13      1.10465531    -0.06941219   -14.94068812    -0.00000000     0.00000008  0.15D-11  0.78D-11  6  1     0.33     0.03
  14      1.10465454    -0.06941220   -14.94068812    -0.00000000     0.00000005  0.15D-12  0.22D-11  6  2     0.35     0.02
  15      1.10465396    -0.06941220   -14.94068812    -0.00000000     0.00000004  0.11D-12  0.57D-12  6  3     0.36     0.02
  16      1.10465363    -0.06941220   -14.94068813    -0.00000000     0.00000002  0.89D-13  0.15D-12  6  4     0.38     0.02
  17      1.10465345    -0.06941221   -14.94068813    -0.00000000     0.00000001  0.50D-13  0.34D-13  6  5     0.40     0.02
  18      1.10465337    -0.06941221   -14.94068813    -0.00000000     0.00000001  0.20D-13  0.10D-13  6  6     0.42     0.02
  19      1.10465335    -0.06941221   -14.94068813    -0.00000000     0.00000000  0.32D-14  0.31D-14  6  2     0.44     0.02
  20      1.10465334    -0.06941221   -14.94068813    -0.00000000     0.00000000  0.82D-16  0.40D-15  6  1     0.45     0.02
  21      1.10465334    -0.06941221   -14.94068813     0.00000000    -0.00000000  0.11D-16  0.11D-15  6  3     0.47     0.02
  22      1.10465334    -0.06941221   -14.94068813     0.00000000    -0.00000000  0.20D-17  0.18D-16  6  4     0.49     0.02
  23      1.10465334    -0.06941221   -14.94068813     0.00000000    -0.00000000  0.57D-18  0.48D-17  6  5     0.51     0.02
  24      1.10465334    -0.06941221   -14.94068813     0.00000000    -0.00000000  0.17D-18  0.13D-17  6  6     0.52     0.02
  25      1.10465334    -0.06941221   -14.94068813     0.00000000    -0.00000000  0.15D-19  0.23D-18  6  1     0.54     0.02
  26      1.10465334    -0.06941221   -14.94068813     0.00000000    -0.00000000  0.76D-20  0.20D-19  6  2     0.56     0.02
  27      1.10465334    -0.06941221   -14.94068813    -0.00000000     0.00000000  0.21D-20  0.65D-20  6  3     0.58     0.02
  28      1.10465334    -0.06941221   -14.94068813    -0.00000000     0.00000000  0.17D-21  0.64D-21  6  4     0.60     0.02
  29      1.10465334    -0.06941221   -14.94068813    -0.00000000     0.00000000  0.70D-23  0.88D-22  6  6     0.61     0.02
  30      1.10465334    -0.06941221   -14.94068813    -0.00000000     0.00000000  0.32D-23  0.16D-22  6  5     0.63     0.02
  31      1.10465334    -0.06941221   -14.94068813    -0.00000000     0.00000000  0.21D-23  0.73D-23  6  6     0.65     0.02
  32      1.10465334    -0.06941221   -14.94068813     0.00000000     0.00000000  0.13D-23  0.51D-23  6  1     0.67     0.02
  33      1.10465334    -0.06941221   -14.94068813     0.00000000     0.00000000  0.97D-24  0.36D-23  6  2     0.69     0.02
  34      1.10465334    -0.06941221   -14.94068813    -0.00000000    -0.00000000  0.81D-24  0.17D-23  6  3     0.71     0.02
  35      1.10465334    -0.06941221   -14.94068813     0.00000000     0.00000000  0.61D-24  0.13D-23  6  1     0.72     0.02
  36      1.10465334    -0.06941221   -14.94068813     0.00000000     0.00000000  0.53D-24  0.96D-24  6  4     0.74     0.02
  37      1.10465334    -0.06941221   -14.94068813     0.00000000    -0.00000000  0.42D-24  0.77D-24  6  6     0.76     0.02
  38      1.10465334    -0.06941221   -14.94068813     0.00000000    -0.00000000  0.31D-24  0.74D-24  6  5     0.78     0.02
  39      1.10465334    -0.06941221   -14.94068813    -0.00000000    -0.00000000  0.25D-24  0.55D-24  6  2     0.79     0.02

 Norm of t1 vector:      0.04589080      S-energy:    -0.00000000      T1 diagnostic:  0.01324753
                                                                       D1 diagnostic:  0.03209270

 Singles amplitudes (print threshold =  0.000E+00):

         I         SYM. A    A   T(IA)

         1         1         1      0.00023401
         1         1         2     -0.00066842
         1         1         3     -0.00038471
         1         1         4      0.00000000
         1         1         5      0.00053530
         1         1         6      0.00065462
         1         1         7      0.00210010
         1         1         8      0.00000000
         1         1         9     -0.00000000
         1         1        10     -0.00008758
         1         1        11     -0.00012278
         1         1        12      0.00031390
         1         1        13      0.00000000
         1         1        14      0.00000000
         1         1        15      0.00008329
         1         1        16     -0.00000000
         1         1        17     -0.00024235
         1         1        18     -0.00000000
         1         1        19     -0.00088913
         1         1        20     -0.00139447
         2         1         1      0.02098013
         2         1         2     -0.02115960
         2         1         3      0.00804996
         2         1         4     -0.00000000
         2         1         5      0.00774656
         2         1         6     -0.00020808
         2         1         7      0.00400721
         2         1         8      0.00000000
         2         1         9      0.00000000
         2         1        10     -0.00016624
         2         1        11     -0.00008660
         2         1        12     -0.00044541
         2         1        13     -0.00000000
         2         1        14      0.00000000
         2         1        15     -0.00016950
         2         1        16     -0.00000000
         2         1        17     -0.00008777
         2         1        18      0.00000000
         2         1        19     -0.00014636
         2         1        20     -0.00019519
         3         5         1     -0.00111100
         3         5         2      0.00110001
         3         5         3     -0.00050805
         3         5         4     -0.00137336
         3         5         5     -0.00000000
         3         5         6      0.00011287
         3         5         7      0.00218891
         3         5         8      0.00001465
         3         5         9      0.00000000
         3         5        10      0.00014897
         3         5        11      0.00000000
         3         5        12      0.00137002
         3         5        13      0.00000000
         3         5        14     -0.00000000
         3         5        15      0.00063975
         3         5        16     -0.00160712
         3         5        17      0.00000000
         3         5        18     -0.00010395
         3         5        19     -0.00000000
         3         5        20      0.00082682
         3         5        21     -0.00041318

 Doubles amplitudes (print threshold =  0.000E+00):

         I         J         SYM. A    SYM. B    A         B      T(IJ, AB)

         1         1         1         1         1         1     -0.00005969
         1         1         1         1         1         2      0.00009159
         1         1         1         1         1         3     -0.00006794
         1         1         1         1         1         4      0.00000000
         1         1         1         1         1         5     -0.00019341
         1         1         1         1         1         6      0.00005279
         1         1         1         1         1         7     -0.00020135
         1         1         1         1         1         8     -0.00000000
         1         1         1         1         1         9     -0.00000000
         1         1         1         1         1        10     -0.00013262
         1         1         1         1         1        11     -0.00010932
         1         1         1         1         1        12     -0.00040905
         1         1         1         1         1        13      0.00000000
         1         1         1         1         1        14      0.00000000
         1         1         1         1         1        15      0.00006419
         1         1         1         1         1        16     -0.00000000
         1         1         1         1         1        17     -0.00019757
         1         1         1         1         1        18      0.00000000
         1         1         1         1         1        19     -0.00022030
         1         1         1         1         1        20      0.00072808
         1         1         1         1         2         1      0.00009159
         1         1         1         1         2         2     -0.00020630
         1         1         1         1         2         3     -0.00003638
         1         1         1         1         2         4     -0.00000000
         1         1         1         1         2         5      0.00025091
         1         1         1         1         2         6      0.00011715
         1         1         1         1         2         7      0.00062613
         1         1         1         1         2         8      0.00000000
         1         1         1         1         2         9      0.00000000
         1         1         1         1         2        10      0.00007159
         1         1         1         1         2        11      0.00004776
         1         1         1         1         2        12      0.00038370
         1         1         1         1         2        13     -0.00000000
         1         1         1         1         2        14      0.00000000
         1         1         1         1         2        15     -0.00000166
         1         1         1         1         2        16      0.00000000
         1         1         1         1         2        17      0.00005570
         1         1         1         1         2        18      0.00000000
         1         1         1         1         2        19     -0.00021981
         1         1         1         1         2        20     -0.00163945
         1         1         1         1         3         1     -0.00006794
         1         1         1         1         3         2     -0.00003638
         1         1         1         1         3         3     -0.00031092
         1         1         1         1         3         4     -0.00000000
         1         1         1         1         3         5     -0.00021183
         1         1         1         1         3         6      0.00037714
         1         1         1         1         3         7      0.00042578
         1         1         1         1         3         8      0.00000000
         1         1         1         1         3         9      0.00000000
         1         1         1         1         3        10     -0.00030445
         1         1         1         1         3        11     -0.00027664
         1         1         1         1         3        12     -0.00066331
         1         1         1         1         3        13     -0.00000000
         1         1         1         1         3        14      0.00000000
         1         1         1         1         3        15      0.00020529
         1         1         1         1         3        16      0.00000000
         1         1         1         1         3        17     -0.00054738
         1         1         1         1         3        18      0.00000000
         1         1         1         1         3        19     -0.00109935
         1         1         1         1         3        20     -0.00046453
         1         1         1         1         4         1      0.00000000
         1         1         1         1         4         2     -0.00000000
         1         1         1         1         4         3     -0.00000000
         1         1         1         1         4         4      0.00000443
         1         1         1         1         4         5     -0.00000000
         1         1         1         1         4         6     -0.00000000
         1         1         1         1         4         7      0.00000000
         1         1         1         1         4         8      0.00000204
         1         1         1         1         4         9     -0.00000412
         1         1         1         1         4        10     -0.00000000
         1         1         1         1         4        11      0.00000000
         1         1         1         1         4        12      0.00000000
         1         1         1         1         4        13      0.00000000
         1         1         1         1         4        14     -0.00000000
         1         1         1         1         4        15      0.00000000
         1         1         1         1         4        16     -0.00000230
         1         1         1         1         4        17      0.00000000
         1         1         1         1         4        18     -0.00002768
         1         1         1         1         4        19      0.00000000
         1         1         1         1         4        20     -0.00000000
         1         1         1         1         5         1     -0.00019341
         1         1         1         1         5         2      0.00025091
         1         1         1         1         5         3     -0.00021183
         1         1         1         1         5         4     -0.00000000
         1         1         1         1         5         5     -0.00047840
         1         1         1         1         5         6      0.00013970
         1         1         1         1         5         7     -0.00044117
         1         1         1         1         5         8      0.00000000
         1         1         1         1         5         9      0.00000000
         1         1         1         1         5        10     -0.00030140
         1         1         1         1         5        11     -0.00027062
         1         1         1         1         5        12     -0.00092411
         1         1         1         1         5        13     -0.00000000
         1         1         1         1         5        14      0.00000000
         1         1         1         1         5        15      0.00012906
         1         1         1         1         5        16      0.00000000
         1         1         1         1         5        17     -0.00045061
         1         1         1         1         5        18      0.00000000
         1         1         1         1         5        19     -0.00056247
         1         1         1         1         5        20      0.00160186
         1         1         1         1         6         1      0.00005279
         1         1         1         1         6         2      0.00011715
         1         1         1         1         6         3      0.00037714
         1         1         1         1         6         4     -0.00000000
         1         1         1         1         6         5      0.00013970
         1         1         1         1         6         6     -0.00046817
         1         1         1         1         6         7     -0.00073384
         1         1         1         1         6         8      0.00000000
         1         1         1         1         6         9      0.00000000
         1         1         1         1         6        10      0.00030613
         1         1         1         1         6        11      0.00029109
         1         1         1         1         6        12      0.00058093
         1         1         1         1         6        13      0.00000000
         1         1         1         1         6        14      0.00000000
         1         1         1         1         6        15     -0.00022787
         1         1         1         1         6        16     -0.00000000
         1         1         1         1         6        17      0.00059270
         1         1         1         1         6        18     -0.00000000
         1         1         1         1         6        19      0.00133085
         1         1         1         1         6        20      0.00121919
         1         1         1         1         7         1     -0.00020135
         1         1         1         1         7         2      0.00062613
         1         1         1         1         7         3      0.00042578
         1         1         1         1         7         4      0.00000000
         1         1         1         1         7         5     -0.00044117
         1         1         1         1         7         6     -0.00073384
         1         1         1         1         7         7     -0.00212791
         1         1         1         1         7         8      0.00000000
         1         1         1         1         7         9      0.00000000
         1         1         1         1         7        10      0.00016680
         1         1         1         1         7        11      0.00019266
         1         1         1         1         7        12     -0.00021768
         1         1         1         1         7        13     -0.00000000
         1         1         1         1         7        14      0.00000000
         1         1         1         1         7        15     -0.00023573
         1         1         1         1         7        16      0.00000000
         1         1         1         1         7        17      0.00049098
         1         1         1         1         7        18     -0.00000000
         1         1         1         1         7        19      0.00185029
         1         1         1         1         7        20      0.00479908
         1         1         1         1         8         1     -0.00000000
         1         1         1         1         8         2      0.00000000
         1         1         1         1         8         3      0.00000000
         1         1         1         1         8         4      0.00000204
         1         1         1         1         8         5      0.00000000
         1         1         1         1         8         6      0.00000000
         1         1         1         1         8         7      0.00000000
         1         1         1         1         8         8      0.00000555
         1         1         1         1         8         9     -0.00000156
         1         1         1         1         8        10     -0.00000000
         1         1         1         1         8        11     -0.00000000
         1         1         1         1         8        12     -0.00000000
         1         1         1         1         8        13      0.00000066
         1         1         1         1         8        14     -0.00000000
         1         1         1         1         8        15      0.00000000
         1         1         1         1         8        16     -0.00000026
         1         1         1         1         8        17     -0.00000000
         1         1         1         1         8        18     -0.00001490
         1         1         1         1         8        19      0.00000000
         1         1         1         1         8        20      0.00000000
         1         1         1         1         9         1     -0.00000000
         1         1         1         1         9         2      0.00000000
         1         1         1         1         9         3      0.00000000
         1         1         1         1         9         4     -0.00000412
         1         1         1         1         9         5      0.00000000
         1         1         1         1         9         6      0.00000000
         1         1         1         1         9         7      0.00000000
         1         1         1         1         9         8     -0.00000156
         1         1         1         1         9         9     -0.00000712
         1         1         1         1         9        10      0.00000000
         1         1         1         1         9        11      0.00000000
         1         1         1         1         9        12     -0.00000000
         1         1         1         1         9        13     -0.00000095
         1         1         1         1         9        14     -0.00000000
         1         1         1         1         9        15     -0.00000000
         1         1         1         1         9        16     -0.00000475
         1         1         1         1         9        17     -0.00000000
         1         1         1         1         9        18     -0.00005227
         1         1         1         1         9        19      0.00000000
         1         1         1         1         9        20      0.00000000
         1         1         1         1        10         1     -0.00013262
         1         1         1         1        10         2      0.00007159
         1         1         1         1        10         3     -0.00030445
         1         1         1         1        10         4     -0.00000000
         1         1         1         1        10         5     -0.00030140
         1         1         1         1        10         6      0.00030613
         1         1         1         1        10         7      0.00016680
         1         1         1         1        10         8     -0.00000000
         1         1         1         1        10         9      0.00000000
         1         1         1         1        10        10     -0.00029365
         1         1         1         1        10        11     -0.00026839
         1         1         1         1        10        12     -0.00074463
         1         1         1         1        10        13      0.00000000
         1         1         1         1        10        14     -0.00000000
         1         1         1         1        10        15      0.00020044
         1         1         1         1        10        16     -0.00000000
         1         1         1         1        10        17     -0.00054006
         1         1         1         1        10        18     -0.00000000
         1         1         1         1        10        19     -0.00094602
         1         1         1         1        10        20      0.00013990
         1         1         1         1        11         1     -0.00010932
         1         1         1         1        11         2      0.00004776
         1         1         1         1        11         3     -0.00027664
         1         1         1         1        11         4      0.00000000
         1         1         1         1        11         5     -0.00027062
         1         1         1         1        11         6      0.00029109
         1         1         1         1        11         7      0.00019266
         1         1         1         1        11         8     -0.00000000
         1         1         1         1        11         9      0.00000000
         1         1         1         1        11        10     -0.00026839
         1         1         1         1        11        11     -0.00026788
         1         1         1         1        11        12     -0.00064916
         1         1         1         1        11        13      0.00000000
         1         1         1         1        11        14      0.00000000
         1         1         1         1        11        15      0.00013056
         1         1         1         1        11        16     -0.00000000
         1         1         1         1        11        17     -0.00046065
         1         1         1         1        11        18     -0.00000000
         1         1         1         1        11        19     -0.00094450
         1         1         1         1        11        20      0.00003502
         1         1         1         1        12         1     -0.00040905
         1         1         1         1        12         2      0.00038370
         1         1         1         1        12         3     -0.00066331
         1         1         1         1        12         4      0.00000000
         1         1         1         1        12         5     -0.00092411
         1         1         1         1        12         6      0.00058093
         1         1         1         1        12         7     -0.00021768
         1         1         1         1        12         8     -0.00000000
         1         1         1         1        12         9     -0.00000000
         1         1         1         1        12        10     -0.00074463
         1         1         1         1        12        11     -0.00064916
         1         1         1         1        12        12     -0.00213059
         1         1         1         1        12        13     -0.00000000
         1         1         1         1        12        14      0.00000000
         1         1         1         1        12        15      0.00050547
         1         1         1         1        12        16      0.00000000
         1         1         1         1        12        17     -0.00138281
         1         1         1         1        12        18      0.00000000
         1         1         1         1        12        19     -0.00208740
         1         1         1         1        12        20      0.00193740
         1         1         1         1        13         1      0.00000000
         1         1         1         1        13         2     -0.00000000
         1         1         1         1        13         3     -0.00000000
         1         1         1         1        13         4      0.00000000
         1         1         1         1        13         5     -0.00000000
         1         1         1         1        13         6      0.00000000
         1         1         1         1        13         7     -0.00000000
         1         1         1         1        13         8      0.00000066
         1         1         1         1        13         9     -0.00000095
         1         1         1         1        13        10      0.00000000
         1         1         1         1        13        11      0.00000000
         1         1         1         1        13        12     -0.00000000
         1         1         1         1        13        13     -0.00000589
         1         1         1         1        13        14     -0.00000000
         1         1         1         1        13        15     -0.00000000
         1         1         1         1        13        16      0.00000396
         1         1         1         1        13        17     -0.00000000
         1         1         1         1        13        18     -0.00000481
         1         1         1         1        13        19     -0.00000000
         1         1         1         1        13        20     -0.00000000
         1         1         1         1        14         1      0.00000000
         1         1         1         1        14         2      0.00000000
         1         1         1         1        14         3      0.00000000
         1         1         1         1        14         4     -0.00000000
         1         1         1         1        14         5      0.00000000
         1         1         1         1        14         6      0.00000000
         1         1         1         1        14         7      0.00000000
         1         1         1         1        14         8     -0.00000000
         1         1         1         1        14         9     -0.00000000
         1         1         1         1        14        10     -0.00000000
         1         1         1         1        14        11      0.00000000
         1         1         1         1        14        12      0.00000000
         1         1         1         1        14        13     -0.00000000
         1         1         1         1        14        14      0.00000213
         1         1         1         1        14        15     -0.00000000
         1         1         1         1        14        16      0.00000000
         1         1         1         1        14        17      0.00000000
         1         1         1         1        14        18      0.00000000
         1         1         1         1        14        19     -0.00000000
         1         1         1         1        14        20     -0.00000000
         1         1         1         1        15         1      0.00006419
         1         1         1         1        15         2     -0.00000166
         1         1         1         1        15         3      0.00020529
         1         1         1         1        15         4      0.00000000
         1         1         1         1        15         5      0.00012906
         1         1         1         1        15         6     -0.00022787
         1         1         1         1        15         7     -0.00023573
         1         1         1         1        15         8      0.00000000
         1         1         1         1        15         9     -0.00000000
         1         1         1         1        15        10      0.00020044
         1         1         1         1        15        11      0.00013056
         1         1         1         1        15        12      0.00050547
         1         1         1         1        15        13     -0.00000000
         1         1         1         1        15        14     -0.00000000
         1         1         1         1        15        15     -0.00024913
         1         1         1         1        15        16      0.00000000
         1         1         1         1        15        17      0.00045760
         1         1         1         1        15        18      0.00000000
         1         1         1         1        15        19      0.00069442
         1         1         1         1        15        20      0.00025800
         1         1         1         1        16         1     -0.00000000
         1         1         1         1        16         2      0.00000000
         1         1         1         1        16         3      0.00000000
         1         1         1         1        16         4     -0.00000230
         1         1         1         1        16         5      0.00000000
         1         1         1         1        16         6     -0.00000000
         1         1         1         1        16         7      0.00000000
         1         1         1         1        16         8     -0.00000026
         1         1         1         1        16         9     -0.00000475
         1         1         1         1        16        10     -0.00000000
         1         1         1         1        16        11     -0.00000000
         1         1         1         1        16        12      0.00000000
         1         1         1         1        16        13      0.00000396
         1         1         1         1        16        14      0.00000000
         1         1         1         1        16        15      0.00000000
         1         1         1         1        16        16     -0.00000223
         1         1         1         1        16        17      0.00000000
         1         1         1         1        16        18     -0.00002420
         1         1         1         1        16        19      0.00000000
         1         1         1         1        16        20      0.00000000
         1         1         1         1        17         1     -0.00019757
         1         1         1         1        17         2      0.00005570
         1         1         1         1        17         3     -0.00054738
         1         1         1         1        17         4      0.00000000
         1         1         1         1        17         5     -0.00045061
         1         1         1         1        17         6      0.00059270
         1         1         1         1        17         7      0.00049098
         1         1         1         1        17         8     -0.00000000
         1         1         1         1        17         9     -0.00000000
         1         1         1         1        17        10     -0.00054006
         1         1         1         1        17        11     -0.00046065
         1         1         1         1        17        12     -0.00138281
         1         1         1         1        17        13     -0.00000000
         1         1         1         1        17        14      0.00000000
         1         1         1         1        17        15      0.00045760
         1         1         1         1        17        16      0.00000000
         1         1         1         1        17        17     -0.00112408
         1         1         1         1        17        18      0.00000000
         1         1         1         1        17        19     -0.00197442
         1         1         1         1        17        20     -0.00027888
         1         1         1         1        18         1      0.00000000
         1         1         1         1        18         2      0.00000000
         1         1         1         1        18         3      0.00000000
         1         1         1         1        18         4     -0.00002768
         1         1         1         1        18         5      0.00000000
         1         1         1         1        18         6     -0.00000000
         1         1         1         1        18         7     -0.00000000
         1         1         1         1        18         8     -0.00001490
         1         1         1         1        18         9     -0.00005227
         1         1         1         1        18        10     -0.00000000
         1         1         1         1        18        11     -0.00000000
         1         1         1         1        18        12      0.00000000
         1         1         1         1        18        13     -0.00000481
         1         1         1         1        18        14      0.00000000
         1         1         1         1        18        15      0.00000000
         1         1         1         1        18        16     -0.00002420
         1         1         1         1        18        17      0.00000000
         1         1         1         1        18        18     -0.00022155
         1         1         1         1        18        19      0.00000000
         1         1         1         1        18        20     -0.00000000
         1         1         1         1        19         1     -0.00022030
         1         1         1         1        19         2     -0.00021981
         1         1         1         1        19         3     -0.00109935
         1         1         1         1        19         4      0.00000000
         1         1         1         1        19         5     -0.00056247
         1         1         1         1        19         6      0.00133085
         1         1         1         1        19         7      0.00185029
         1         1         1         1        19         8      0.00000000
         1         1         1         1        19         9      0.00000000
         1         1         1         1        19        10     -0.00094602
         1         1         1         1        19        11     -0.00094450
         1         1         1         1        19        12     -0.00208740
         1         1         1         1        19        13     -0.00000000
         1         1         1         1        19        14     -0.00000000
         1         1         1         1        19        15      0.00069442
         1         1         1         1        19        16      0.00000000
         1         1         1         1        19        17     -0.00197442
         1         1         1         1        19        18      0.00000000
         1         1         1         1        19        19     -0.00447000
         1         1         1         1        19        20     -0.00318246
         1         1         1         1        20         1      0.00072808
         1         1         1         1        20         2     -0.00163945
         1         1         1         1        20         3     -0.00046453
         1         1         1         1        20         4     -0.00000000
         1         1         1         1        20         5      0.00160186
         1         1         1         1        20         6      0.00121919
         1         1         1         1        20         7      0.00479908
         1         1         1         1        20         8      0.00000000
         1         1         1         1        20         9      0.00000000
         1         1         1         1        20        10      0.00013990
         1         1         1         1        20        11      0.00003502
         1         1         1         1        20        12      0.00193740
         1         1         1         1        20        13     -0.00000000
         1         1         1         1        20        14     -0.00000000
         1         1         1         1        20        15      0.00025800
         1         1         1         1        20        16      0.00000000
         1         1         1         1        20        17     -0.00027888
         1         1         1         1        20        18     -0.00000000
         1         1         1         1        20        19     -0.00318246
         1         1         1         1        20        20     -0.01458413
         1         1         2         2         1         1      0.00003388
         1         1         2         2         1         2      0.00002711
         1         1         2         2         1         3      0.00000362
         1         1         2         2         1         4     -0.00018453
         1         1         2         2         1         5      0.00000000
         1         1         2         2         1         6      0.00003752
         1         1         2         2         1         7      0.00002330
         1         1         2         2         1         8     -0.00057173
         1         1         2         2         1         9     -0.00000000
         1         1         2         2         1        10      0.00011155
         1         1         2         2         1        11     -0.00000000
         1         1         2         2         1        12      0.00004150
         1         1         2         2         1        13     -0.00009710
         1         1         2         2         2         1      0.00002711
         1         1         2         2         2         2     -0.00013435
         1         1         2         2         2         3      0.00002491
         1         1         2         2         2         4      0.00036484
         1         1         2         2         2         5     -0.00000000
         1         1         2         2         2         6     -0.00005682
         1         1         2         2         2         7     -0.00004326
         1         1         2         2         2         8      0.00108659
         1         1         2         2         2         9      0.00000000
         1         1         2         2         2        10     -0.00021099
         1         1         2         2         2        11      0.00000000
         1         1         2         2         2        12     -0.00007925
         1         1         2         2         2        13      0.00018505
         1         1         2         2         3         1      0.00000362
         1         1         2         2         3         2      0.00002491
         1         1         2         2         3         3     -0.00000269
         1         1         2         2         3         4     -0.00009358
         1         1         2         2         3         5     -0.00000000
         1         1         2         2         3         6      0.00000978
         1         1         2         2         3         7      0.00001325
         1         1         2         2         3         8     -0.00028024
         1         1         2         2         3         9     -0.00000000
         1         1         2         2         3        10      0.00004460
         1         1         2         2         3        11      0.00000000
         1         1         2         2         3        12     -0.00000159
         1         1         2         2         3        13     -0.00007014
         1         1         2         2         4         1     -0.00018453
         1         1         2         2         4         2      0.00036484
         1         1         2         2         4         3     -0.00009358
         1         1         2         2         4         4     -0.00065171
         1         1         2         2         4         5      0.00000000
         1         1         2         2         4         6      0.00007347
         1         1         2         2         4         7      0.00007171
         1         1         2         2         4         8     -0.00184977
         1         1         2         2         4         9      0.00000000
         1         1         2         2         4        10      0.00035898
         1         1         2         2         4        11     -0.00000000
         1         1         2         2         4        12      0.00014154
         1         1         2         2         4        13     -0.00030689
         1         1         2         2         5         1      0.00000000
         1         1         2         2         5         2     -0.00000000
         1         1         2         2         5         3     -0.00000000
         1         1         2         2         5         4      0.00000000
         1         1         2         2         5         5      0.00000440
         1         1         2         2         5         6     -0.00000000
         1         1         2         2         5         7     -0.00000000
         1         1         2         2         5         8      0.00000000
         1         1         2         2         5         9      0.00000107
         1         1         2         2         5        10     -0.00000000
         1         1         2         2         5        11      0.00000008
         1         1         2         2         5        12     -0.00000000
         1         1         2         2         5        13      0.00000000
         1         1         2         2         6         1      0.00003752
         1         1         2         2         6         2     -0.00005682
         1         1         2         2         6         3      0.00000978
         1         1         2         2         6         4      0.00007347
         1         1         2         2         6         5     -0.00000000
         1         1         2         2         6         6     -0.00001862
         1         1         2         2         6         7     -0.00000436
         1         1         2         2         6         8      0.00021084
         1         1         2         2         6         9      0.00000000
         1         1         2         2         6        10     -0.00006306
         1         1         2         2         6        11      0.00000000
         1         1         2         2         6        12     -0.00006300
         1         1         2         2         6        13     -0.00001382
         1         1         2         2         7         1      0.00002330
         1         1         2         2         7         2     -0.00004326
         1         1         2         2         7         3      0.00001325
         1         1         2         2         7         4      0.00007171
         1         1         2         2         7         5     -0.00000000
         1         1         2         2         7         6     -0.00000436
         1         1         2         2         7         7     -0.00000458
         1         1         2         2         7         8      0.00019958
         1         1         2         2         7         9      0.00000000
         1         1         2         2         7        10     -0.00003629
         1         1         2         2         7        11      0.00000000
         1         1         2         2         7        12     -0.00001019
         1         1         2         2         7        13      0.00003778
         1         1         2         2         8         1     -0.00057173
         1         1         2         2         8         2      0.00108659
         1         1         2         2         8         3     -0.00028024
         1         1         2         2         8         4     -0.00184977
         1         1         2         2         8         5      0.00000000
         1         1         2         2         8         6      0.00021084
         1         1         2         2         8         7      0.00019958
         1         1         2         2         8         8     -0.00572156
         1         1         2         2         8         9     -0.00000000
         1         1         2         2         8        10      0.00113078
         1         1         2         2         8        11     -0.00000000
         1         1         2         2         8        12      0.00046383
         1         1         2         2         8        13     -0.00095579
         1         1         2         2         9         1     -0.00000000
         1         1         2         2         9         2      0.00000000
         1         1         2         2         9         3     -0.00000000
         1         1         2         2         9         4      0.00000000
         1         1         2         2         9         5      0.00000107
         1         1         2         2         9         6      0.00000000
         1         1         2         2         9         7      0.00000000
         1         1         2         2         9         8     -0.00000000
         1         1         2         2         9         9      0.00000281
         1         1         2         2         9        10      0.00000000
         1         1         2         2         9        11     -0.00000184
         1         1         2         2         9        12      0.00000000
         1         1         2         2         9        13     -0.00000000
         1         1         2         2        10         1      0.00011155
         1         1         2         2        10         2     -0.00021099
         1         1         2         2        10         3      0.00004460
         1         1         2         2        10         4      0.00035898
         1         1         2         2        10         5     -0.00000000
         1         1         2         2        10         6     -0.00006306
         1         1         2         2        10         7     -0.00003629
         1         1         2         2        10         8      0.00113078
         1         1         2         2        10         9      0.00000000
         1         1         2         2        10        10     -0.00025484
         1         1         2         2        10        11      0.00000000
         1         1         2         2        10        12     -0.00013699
         1         1         2         2        10        13      0.00014071
         1         1         2         2        11         1     -0.00000000
         1         1         2         2        11         2      0.00000000
         1         1         2         2        11         3      0.00000000
         1         1         2         2        11         4     -0.00000000
         1         1         2         2        11         5      0.00000008
         1         1         2         2        11         6      0.00000000
         1         1         2         2        11         7      0.00000000
         1         1         2         2        11         8     -0.00000000
         1         1         2         2        11         9     -0.00000184
         1         1         2         2        11        10      0.00000000
         1         1         2         2        11        11     -0.00000655
         1         1         2         2        11        12      0.00000000
         1         1         2         2        11        13     -0.00000000
         1         1         2         2        12         1      0.00004150
         1         1         2         2        12         2     -0.00007925
         1         1         2         2        12         3     -0.00000159
         1         1         2         2        12         4      0.00014154
         1         1         2         2        12         5     -0.00000000
         1         1         2         2        12         6     -0.00006300
         1         1         2         2        12         7     -0.00001019
         1         1         2         2        12         8      0.00046383
         1         1         2         2        12         9      0.00000000
         1         1         2         2        12        10     -0.00013699
         1         1         2         2        12        11      0.00000000
         1         1         2         2        12        12     -0.00013837
         1         1         2         2        12        13     -0.00003273
         1         1         2         2        13         1     -0.00009710
         1         1         2         2        13         2      0.00018505
         1         1         2         2        13         3     -0.00007014
         1         1         2         2        13         4     -0.00030689
         1         1         2         2        13         5      0.00000000
         1         1         2         2        13         6     -0.00001382
         1         1         2         2        13         7      0.00003778
         1         1         2         2        13         8     -0.00095579
         1         1         2         2        13         9     -0.00000000
         1         1         2         2        13        10      0.00014071
         1         1         2         2        13        11     -0.00000000
         1         1         2         2        13        12     -0.00003273
         1         1         2         2        13        13     -0.00027751
         1         1         3         3         1         1      0.00003388
         1         1         3         3         1         2      0.00002711
         1         1         3         3         1         3      0.00000362
         1         1         3         3         1         4     -0.00018453
         1         1         3         3         1         5     -0.00000000
         1         1         3         3         1         6      0.00003752
         1         1         3         3         1         7      0.00002330
         1         1         3         3         1         8     -0.00057173
         1         1         3         3         1         9      0.00000000
         1         1         3         3         1        10      0.00011155
         1         1         3         3         1        11      0.00000000
         1         1         3         3         1        12      0.00004150
         1         1         3         3         1        13     -0.00009710
         1         1         3         3         2         1      0.00002711
         1         1         3         3         2         2     -0.00013435
         1         1         3         3         2         3      0.00002491
         1         1         3         3         2         4      0.00036484
         1         1         3         3         2         5      0.00000000
         1         1         3         3         2         6     -0.00005682
         1         1         3         3         2         7     -0.00004326
         1         1         3         3         2         8      0.00108659
         1         1         3         3         2         9     -0.00000000
         1         1         3         3         2        10     -0.00021099
         1         1         3         3         2        11     -0.00000000
         1         1         3         3         2        12     -0.00007925
         1         1         3         3         2        13      0.00018505
         1         1         3         3         3         1      0.00000362
         1         1         3         3         3         2      0.00002491
         1         1         3         3         3         3     -0.00000269
         1         1         3         3         3         4     -0.00009358
         1         1         3         3         3         5      0.00000000
         1         1         3         3         3         6      0.00000978
         1         1         3         3         3         7      0.00001325
         1         1         3         3         3         8     -0.00028024
         1         1         3         3         3         9      0.00000000
         1         1         3         3         3        10      0.00004460
         1         1         3         3         3        11     -0.00000000
         1         1         3         3         3        12     -0.00000159
         1         1         3         3         3        13     -0.00007014
         1         1         3         3         4         1     -0.00018453
         1         1         3         3         4         2      0.00036484
         1         1         3         3         4         3     -0.00009358
         1         1         3         3         4         4     -0.00065171
[...]
         3         2         6         2        13         9     -0.00000000
         3         2         6         2        13        10     -0.00002010
         3         2         6         2        13        11      0.00000000
         3         2         6         2        13        12      0.00015671
         3         2         6         2        13        13      0.00017239
         3         2         7         3         1         1     -0.00011873
         3         2         7         3         1         2      0.00017255
         3         2         7         3         1         3     -0.00006088
         3         2         7         3         1         4     -0.00017675
         3         2         7         3         1         5      0.00000000
         3         2         7         3         1         6     -0.00003585
         3         2         7         3         1         7      0.00001571
         3         2         7         3         1         8     -0.00003982
         3         2         7         3         1         9     -0.00000000
         3         2         7         3         1        10     -0.00001211
         3         2         7         3         1        11      0.00000000
         3         2         7         3         1        12     -0.00002263
         3         2         7         3         1        13     -0.00001728
         3         2         7         3         2         1     -0.00047169
         3         2         7         3         2         2      0.00068355
         3         2         7         3         2         3     -0.00024501
         3         2         7         3         2         4     -0.00070123
         3         2         7         3         2         5     -0.00000000
         3         2         7         3         2         6     -0.00014615
         3         2         7         3         2         7      0.00006368
         3         2         7         3         2         8     -0.00016209
         3         2         7         3         2         9      0.00000000
         3         2         7         3         2        10     -0.00004656
         3         2         7         3         2        11      0.00000000
         3         2         7         3         2        12     -0.00009188
         3         2         7         3         2        13     -0.00006960
         3         2         7         3         3         1      0.00023218
         3         2         7         3         3         2     -0.00033460
         3         2         7         3         3         3      0.00010479
         3         2         7         3         3         4      0.00035099
         3         2         7         3         3         5     -0.00000000
         3         2         7         3         3         6      0.00004505
         3         2         7         3         3         7     -0.00002690
         3         2         7         3         3         8      0.00008143
         3         2         7         3         3         9      0.00000000
         3         2         7         3         3        10      0.00001902
         3         2         7         3         3        11      0.00000000
         3         2         7         3         3        12      0.00003499
         3         2         7         3         3        13      0.00002653
         3         2         7         3         4         1     -0.00091323
         3         2         7         3         4         2      0.00132857
         3         2         7         3         4         3     -0.00051926
         3         2         7         3         4         4     -0.00137434
         3         2         7         3         4         5      0.00000000
         3         2         7         3         4         6     -0.00036315
         3         2         7         3         4         7      0.00013379
         3         2         7         3         4         8     -0.00034386
         3         2         7         3         4         9     -0.00000000
         3         2         7         3         4        10     -0.00012693
         3         2         7         3         4        11      0.00000000
         3         2         7         3         4        12     -0.00021865
         3         2         7         3         4        13     -0.00017281
         3         2         7         3         5         1     -0.00000000
         3         2         7         3         5         2      0.00000000
         3         2         7         3         5         3     -0.00000000
         3         2         7         3         5         4     -0.00000000
         3         2         7         3         5         5     -0.00000998
         3         2         7         3         5         6      0.00000000
         3         2         7         3         5         7      0.00000000
         3         2         7         3         5         8     -0.00000000
         3         2         7         3         5         9     -0.00000361
         3         2         7         3         5        10      0.00000000
         3         2         7         3         5        11     -0.00001134
         3         2         7         3         5        12      0.00000000
         3         2         7         3         5        13     -0.00000000
         3         2         7         3         6         1     -0.00041770
         3         2         7         3         6         2      0.00060517
         3         2         7         3         6         3     -0.00018303
         3         2         7         3         6         4     -0.00065230
         3         2         7         3         6         5     -0.00000000
         3         2         7         3         6         6     -0.00006716
         3         2         7         3         6         7      0.00004920
         3         2         7         3         6         8     -0.00017026
         3         2         7         3         6         9      0.00000000
         3         2         7         3         6        10     -0.00002597
         3         2         7         3         6        11      0.00000000
         3         2         7         3         6        12     -0.00006151
         3         2         7         3         6        13     -0.00004986
         3         2         7         3         7         1     -0.00077977
         3         2         7         3         7         2      0.00115703
         3         2         7         3         7         3     -0.00054687
         3         2         7         3         7         4     -0.00122828
         3         2         7         3         7         5     -0.00000000
         3         2         7         3         7         6     -0.00049811
         3         2         7         3         7         7      0.00013591
         3         2         7         3         7         8     -0.00033719
         3         2         7         3         7         9      0.00000000
         3         2         7         3         7        10     -0.00019597
         3         2         7         3         7        11      0.00000000
         3         2         7         3         7        12     -0.00027570
         3         2         7         3         7        13     -0.00021921
         3         2         7         3         8         1     -0.00090023
         3         2         7         3         8         2      0.00132466
         3         2         7         3         8         3     -0.00046111
         3         2         7         3         8         4     -0.00149342
         3         2         7         3         8         5     -0.00000000
         3         2         7         3         8         6     -0.00023457
         3         2         7         3         8         7      0.00014649
         3         2         7         3         8         8     -0.00037682
         3         2         7         3         8         9     -0.00000000
         3         2         7         3         8        10     -0.00009354
         3         2         7         3         8        11      0.00000000
         3         2         7         3         8        12     -0.00023112
         3         2         7         3         8        13     -0.00016723
         3         2         7         3         9         1      0.00000000
         3         2         7         3         9         2     -0.00000000
         3         2         7         3         9         3     -0.00000000
         3         2         7         3         9         4      0.00000000
         3         2         7         3         9         5     -0.00004789
         3         2         7         3         9         6     -0.00000000
         3         2         7         3         9         7      0.00000000
         3         2         7         3         9         8      0.00000000
         3         2         7         3         9         9     -0.00003975
         3         2         7         3         9        10     -0.00000000
         3         2         7         3         9        11     -0.00010346
         3         2         7         3         9        12     -0.00000000
         3         2         7         3         9        13      0.00000000
         3         2         7         3        10         1      0.00000000
         3         2         7         3        10         2     -0.00000000
         3         2         7         3        10         3     -0.00000000
         3         2         7         3        10         4     -0.00000000
         3         2         7         3        10         5     -0.00001331
         3         2         7         3        10         6      0.00000000
         3         2         7         3        10         7      0.00000000
         3         2         7         3        10         8      0.00000000
         3         2         7         3        10         9     -0.00004311
         3         2         7         3        10        10     -0.00000000
         3         2         7         3        10        11     -0.00001611
         3         2         7         3        10        12     -0.00000000
         3         2         7         3        10        13      0.00000000
         3         2         7         3        11         1     -0.00049527
         3         2         7         3        11         2      0.00073025
         3         2         7         3        11         3     -0.00024763
         3         2         7         3        11         4     -0.00083502
         3         2         7         3        11         5     -0.00000000
         3         2         7         3        11         6     -0.00013950
         3         2         7         3        11         7      0.00005382
         3         2         7         3        11         8     -0.00019516
         3         2         7         3        11         9     -0.00000000
         3         2         7         3        11        10     -0.00011808
         3         2         7         3        11        11      0.00000000
         3         2         7         3        11        12     -0.00010039
         3         2         7         3        11        13     -0.00008038
         3         2         7         3        12         1     -0.00042283
         3         2         7         3        12         2      0.00066746
         3         2         7         3        12         3     -0.00046349
         3         2         7         3        12         4     -0.00075748
         3         2         7         3        12         5     -0.00000000
         3         2         7         3        12         6     -0.00063674
         3         2         7         3        12         7      0.00010383
         3         2         7         3        12         8     -0.00029556
         3         2         7         3        12         9     -0.00000000
         3         2         7         3        12        10     -0.00038112
         3         2         7         3        12        11      0.00000000
         3         2         7         3        12        12     -0.00038761
         3         2         7         3        12        13     -0.00030760
         3         2         7         3        13         1      0.00041220
         3         2         7         3        13         2     -0.00061256
         3         2         7         3        13         3      0.00024507
         3         2         7         3        13         4      0.00070658
         3         2         7         3        13         5      0.00000000
         3         2         7         3        13         6      0.00014085
         3         2         7         3        13         7     -0.00009537
         3         2         7         3        13         8      0.00014044
         3         2         7         3        13         9      0.00000000
         3         2         7         3        13        10     -0.00002010
         3         2         7         3        13        11     -0.00000000
         3         2         7         3        13        12      0.00015671
         3         2         7         3        13        13      0.00017239
         3         2         8         4         1         1     -0.00004269
         3         2         8         4         1         2     -0.00002510
         3         2         8         4         1         3     -0.00006409
         3         2         8         4         1         4     -0.00001203
         3         2         8         4         1         5     -0.00000000
         3         2         8         4         1         6     -0.00000200
         3         2         8         4         1         7     -0.00005035
         3         2         8         4         2         1      0.00006601
         3         2         8         4         2         2      0.00003463
         3         2         8         4         2         3      0.00009973
         3         2         8         4         2         4      0.00001586
         3         2         8         4         2         5     -0.00000000
         3         2         8         4         2         6      0.00000481
         3         2         8         4         2         7      0.00007196
         3         2         8         4         3         1     -0.00011309
         3         2         8         4         3         2     -0.00007714
         3         2         8         4         3         3     -0.00016613
         3         2         8         4         3         4     -0.00004377
         3         2         8         4         3         5     -0.00000000
         3         2         8         4         3         6     -0.00000004
         3         2         8         4         3         7     -0.00012052
         3         2         8         4         4         1     -0.00000000
         3         2         8         4         4         2      0.00000000
         3         2         8         4         4         3     -0.00000000
         3         2         8         4         4         4      0.00000000
         3         2         8         4         4         5     -0.00003144
         3         2         8         4         4         6     -0.00000000
         3         2         8         4         4         7     -0.00000000
         3         2         8         4         5         1     -0.00001532
         3         2         8         4         5         2     -0.00005585
         3         2         8         4         5         3     -0.00001408
         3         2         8         4         5         4     -0.00010347
         3         2         8         4         5         5     -0.00000000
         3         2         8         4         5         6      0.00002708
         3         2         8         4         5         7     -0.00001243
         3         2         8         4         6         1     -0.00023612
         3         2         8         4         6         2     -0.00017372
         3         2         8         4         6         3     -0.00039963
         3         2         8         4         6         4     -0.00014820
         3         2         8         4         6         5     -0.00000000
         3         2         8         4         6         6     -0.00001750
         3         2         8         4         6         7     -0.00042258
         3         2         8         4         7         1      0.00004100
         3         2         8         4         7         2      0.00000288
         3         2         8         4         7         3      0.00007476
         3         2         8         4         7         4     -0.00005420
         3         2         8         4         7         5      0.00000000
         3         2         8         4         7         6     -0.00001307
         3         2         8         4         7         7      0.00009806


 RESULTS
 =======

  Reference energy                    -14.871275922556

  Correlated core orbitals:             1.1       1.5
  Orbital energies:                    -2.4528   -2.4524

  CCSD core-core energy                -0.033882985533
  CCSD core-valence energy             -0.003768117064
  CCSD valence correlation energy      -0.031761105082

  CCSD singlet pair energy             -0.067763978595
  CCSD triplet pair energy             -0.001648228505
  CCSD correlation energy              -0.069412207680

 !CCSD total energy                   -14.940688130235

 Timing summary (sec):

 STEP                 CPU(USER)    SYS     CPU(TOT)    WALL
 Transformation          0.02      0.01      0.03      0.04
 CCSD iterations         0.81      0.08      0.89      0.88

 Program statistics:

 Available memory in ccsd:                39999164
 Min. memory needed in ccsd:                 46689
 Max. memory used in ccsd:                   51202
 Max. memory used in cckext:                 74925 (39 integral passes)



 **********************************************************************************************************************************
 DATASETS  * FILE   NREC   LENGTH (MB)   RECORD NAMES
              1      20       41.25       500      700      610      900      950      970     1000      129      960     1100   
                                          VAR     GEOM    BASINP   SYMINP    ZMAT    AOBASIS   BASIS     P2S    ABASIS      S 
                                         1400     1410     1200     1210     1080     1600     1650     1300     1700     1380   
                                           T        V       H0       H01     AOSYM     SMH    MOLCAS    ERIS     OPER     JKOP   

              3       5       14.82       500      610      700     1000     2100   
                                          VAR    BASINP    GEOM     BASIS     RHF  

 PROGRAMS   *        TOTAL      CCSD       INT   RESTART
 CPU TIMES  *         2.12      0.90      1.13      0.01
 REAL TIME  *         2.45 SEC
 DISK USED  *        86.27 MB
 **********************************************************************************************************************************
 Molecular orbitals read from record     2100.3  Type=RHF/CANONICAL (state 1.1)
 Occupation numbers read from record     2100.3  Type=RHF/RHF (state 1.1)
 Orbital energies read from record       2100.3  Type=RHF/CANONICAL (state 1.1)
 Redundancy group numbers read from rec  2100.3  Type=RHF/RHF (state 1.1)

 CCSD/cc-pVQZ energy=    -14.940688130235

            CCSD
    -14.94068813
 **********************************************************************************************************************************
 Molpro calculation terminated
