
 Primary working directories    : /scr/yuriaoto/job.022761/molpro.phVpRwe5DF
 Secondary working directories  : /scr/yuriaoto/job.022761/molpro.phVpRwe5DF
 Wavefunction directory         : /scr/yuriaoto/job.022761/
 Main file repository           : /scr/yuriaoto/job.022761/molpro.phVpRwe5DF/

 id        : yuriaoto

 Nodes             nprocs
 t-rex.ufabc.int.br    1

 Using customized tuning parameters: mindgm=8; mindgv=16; mindgc=1; mindgr=1; noblas=0; minvec=7
 default implementation of scratch files=df  


 Variables initialized (933), CPU time= 0.00 sec
 ***,
 memory,40,m
 gprint,orbital,basis,civector
 gthresh,thrprint=0,printci=0.0
 file,3,wfu.dat,old
 
 {cisd,CC_NORM_MAX=10.0
 thresh,printci=0.0,ENERGY=1.0E-10,COEFF=1.0E-12
 print,ref=1
 core,0
 wf,6,1,0;
 }
 
 Commands  initialized (760), CPU time= 0.01 sec, 617 directives.
 Default parameters read. Elapsed time= 0.04 sec

 Checking input...
 Passed
1


                                         ***  PROGRAM SYSTEM MOLPRO  ***
                                       Copyright, TTI GmbH Stuttgart, 2015
                                    Version 2019.2 linked Abr  7 2019 15:10:35


 **********************************************************************************************************************************
 LABEL *                                                                                 
  64 bit serial version                                                                  DATE: 10-Feb-20          TIME: 10:56:47  
 **********************************************************************************************************************************

 SHA1:             3a8a58c585c929645742fb5a1b7541a4ad1da699
 **********************************************************************************************************************************


 THRESHOLDS:

 ZERO    =  1.00D-12  ONEINT  =  1.00D-12  TWOINT  =  1.00D-11  PREFAC  =  1.00D-14  XXXXXX  =  1.00D-09  EORDER  =  1.00D-04
 ENERGY  =  0.00D+00  ETEST   =  0.00D+00  EDENS   =  0.00D+00  THRDEDEF=  1.00D-06  GRADIENT=  1.00D-02  STEP    =  1.00D-03
 ORBITAL =  1.00D-05  CIVEC   =  1.00D-05  COEFF   =  1.00D-04  PRINTCI =  0.00D+00  PUNCHCI =  9.90D+01  OPTGRAD =  3.00D-04
 OPTENERG=  1.00D-06  OPTSTEP =  3.00D-04  THRGRAD =  1.00D-10  COMPRESS=  1.00D-11  VARMIN  =  1.00D-07  VARMAX  =  1.00D-03
 THRDOUB =  0.00D+00  THRDIV  =  1.00D-05  THRRED  =  1.00D-07  THRPSP  =  1.00D+00  THRDC   =  1.00D-10  THRCS   =  1.00D-10
 THRNRM  =  1.00D-08  THREQ   =  0.00D+00  THRDE   =  1.00D+00  THRREF  =  1.00D-05  SPARFAC =  1.00D+00  THRDLP  =  1.00D-07
 THRDIA  =  1.00D-10  THRDLS  =  1.00D-07  THRGPS  =  0.00D+00  THRKEX  =  0.00D+00  THRDIS  =  2.00D-01  THRVAR  =  1.00D-10
 THRLOC  =  1.00D-06  THRGAP  =  1.00D-06  THRLOCT = -1.00D+00  THRGAPT = -1.00D+00  THRORB  =  1.00D-06  THRMLTP =  0.00D+00
 THRCPQCI=  1.00D-10  KEXTA   =  0.00D+00  THRCOARS=  0.00D+00  SYMTOL  =  1.00D-06  GRADTOL =  1.00D-06  THROVL  =  1.00D-08
 THRORTH =  1.00D-08  GRID    =  1.00D-06  GRIDMAX =  1.00D-03  DTMAX   =  0.00D+00  THROCCDE=  1.00D-01  THROCCDE=  1.00D-01
 THRPRINT=  0.00D+00


 Variable memory set to   40000000 words,  buffer space 



 Permanent file  3  wfu.dat  assigned.  Implementation=df    Size= 14.14 MB


 PROGRAM * RESTART 


 Reading variables from file 3

 _FNUC           =      0.00000000
 _BASIS          =    CC-PVQZ
 _NELEC          =      6.00000000
 _PROGRAM        =    RHF-SCF
 _DMX_SCF        =      0.00000000
 _DMY_SCF        =      0.00000000
 _DMZ_SCF        =      0.00000000
 _HOMO           =      2.10000000
 _EHOMO          =     -0.18246531
 _LUMO           =      2.50000000
 _ELUMO          =      0.00555584
 _ENERGY         =    -14.87127592
 _ENERGY_METHOD  =    RHF
 _ENERGY_BASIS   =    cc-pVQZ
 _ENUC           =      1.80000000
 _EPS1(1:17)     =     -2.45275542    -0.18246531     0.03118128     0.07675564     0.10329663     0.17513734
                        0.25175330     0.28508831     0.35792933     0.45872422     0.56018831     0.59918038
                        0.62755650     1.11239813     1.15386160     1.19142153     1.32188143
 _EPS2(1:13)     =      0.02433195     0.09353741     0.21068870     0.32226550     0.42191244     0.54628859
                        0.59819740     1.10083269     1.15221110     1.20763857     1.21042280     1.40783887
                        1.71444622
 _EPS3(1:13)     =      0.02433195     0.09353741     0.21068870     0.32226550     0.42191244     0.54628859
                        0.59819740     1.10083269     1.15221110     1.20763857     1.21042280     1.40783887
                        1.71444622
 _EPS4(1:7)      =      0.17513734     0.45872422     0.56018831     1.15386160     1.19142153     1.33151704
                        1.47724476
 _EPS5(1:16)     =     -2.45238917     0.00555584     0.05165406     0.11717968     0.16988016     0.22773801
                        0.28045093     0.41754488     0.49749500     0.57413233     0.61243569     0.63567405
                        0.88007748     1.26225432     1.33801999     1.36959713
 _EPS6(1:13)     =      0.04825428     0.13557655     0.27933523     0.33487951     0.49486051     0.59572254
                        0.76334313     1.19733327     1.25823163     1.41087078     1.41960646     1.59670947
                        2.17132043
 _EPS7(1:13)     =      0.04825428     0.13557655     0.27933523     0.33487951     0.49486051     0.59572254
                        0.76334313     1.19733327     1.25823163     1.41087078     1.41960646     1.59670947
                        2.17132043
 _EPS8(1:7)      =      0.22773801     0.57413233     0.63567405     1.26225432     1.33801999     1.49625433
                        1.70967926
 _IPROC_MPP      =      0.00000000
 _IPROC_MPPX     =      0.00000000
 _ORBITAL        =   2100.30000000
 _STATUS         =      1.00000000
 _LASTORB        =    RHF
 _OUTPUT         =    /scr/yuriaoto/job.022758/RHF.xml
 _PGROUP         =    D2h 
 _TIME           =    10:56:03
 R               =      5.00000000

 Geometry written to block  1 of record 700


 **********************************************************************************************************************************
 DATASETS  * FILE   NREC   LENGTH (MB)   RECORD NAMES
              3       5       14.82       500      610      700     1000     2100   
                                          VAR    BASINP    GEOM     BASIS     RHF  

 PROGRAMS   *        TOTAL   RESTART
 CPU TIMES  *         0.12      0.02
 REAL TIME  *         0.15 SEC
 DISK USED  *        26.89 MB
 **********************************************************************************************************************************


 Recomputing integrals since basis changed


 Using spherical harmonics

 Library entry LI     S cc-pVQZ              selected for orbital group  1
 Library entry LI     P cc-pVQZ              selected for orbital group  1
 Library entry LI     D cc-pVQZ              selected for orbital group  1
 Library entry LI     F cc-pVQZ              selected for orbital group  1
 Library entry LI     G cc-pVQZ              selected for orbital group  1


 PROGRAM * SEWARD (Integral evaluation for generally contracted gaussian basis sets)     Author: Roland Lindh, 1990

 Geometry written to block  1 of record 700

 Orientation using atomic masses  
 Molecule type: Linear
 User-specified symmetry elements: X,Y,Z
 Symmetry elements: X,Y,Z
 Rotational constants:      20.8009354     20.8009354      0.0000000 GHz  (calculated with average atomic masses)

 Point group  D2h 



 ATOMIC COORDINATES

 NR  ATOM    CHARGE       X              Y              Z

   1  LI1     3.00    0.000000000    0.000000000   -2.500000000
   2  LI2     3.00    0.000000000    0.000000000    2.500000000

 Bond lengths in Bohr (Angstrom)

 1-2  5.000000000
     ( 2.645886055)


 BASIS DATA

   Nr Sym  Nuc  Type         Exponents   Contraction coefficients

    1.1 Ag    1  1s        6601.000000     0.000117   -0.000018    0.000000    0.000000    0.000000
    2.1 Ag    2  1s         989.700000     0.000911   -0.000142    0.000000    0.000000    0.000000
    3.1 Ag                  225.700000     0.004728   -0.000741    0.000000    0.000000    0.000000
    4.1 Ag                   64.290000     0.019197   -0.003020    0.000000    0.000000    0.000000
    5.1 Ag                   21.180000     0.063047   -0.010123    0.000000    0.000000    0.000000
                              7.724000     0.163208   -0.027094    0.000000    0.000000    0.000000
                              3.003000     0.314827   -0.057359    0.000000    0.000000    0.000000
                              1.212000     0.393936   -0.093895    0.000000    0.000000    0.000000
                              0.493000     0.196918   -0.121091    0.000000    0.000000    0.000000
                              0.095150     0.009997    0.276608    1.000000    0.000000    0.000000
                              0.047910    -0.005402    0.549548    0.000000    1.000000    0.000000
                              0.022200     0.001704    0.277385    0.000000    0.000000    1.000000
    6.1 Ag    1  2pz          6.250000     0.003388    0.000000    0.000000    0.000000
    7.1 Ag    2 -2pz          1.370000     0.019316    0.000000    0.000000    0.000000
    8.1 Ag                    0.367200     0.079104    0.000000    0.000000    0.000000
    9.1 Ag                    0.119200     0.274095    1.000000    0.000000    0.000000
                              0.044740     0.519488    0.000000    1.000000    0.000000
                              0.017950     0.284423    0.000000    0.000000    1.000000
   10.1 Ag    1  3d0          0.335200     1.000000
              2  3d0   
   11.1 Ag    1  3d2+         0.335200     1.000000
              2  3d2+  
   12.1 Ag    1  3d0          0.148200     1.000000
              2  3d0   
   13.1 Ag    1  3d2+         0.148200     1.000000
              2  3d2+  
   14.1 Ag    1  3d0          0.065600     1.000000
              2  3d0   
   15.1 Ag    1  3d2+         0.065600     1.000000
              2  3d2+  
   16.1 Ag    1  4f0          0.228000     1.000000
              2 -4f0   
   17.1 Ag    1  4f2+         0.228000     1.000000
              2 -4f2+  
   18.1 Ag    1  4f0          0.113500     1.000000
              2 -4f0   
   19.1 Ag    1  4f2+         0.113500     1.000000
              2 -4f2+  
   20.1 Ag    1  5g0          0.231900     1.000000
              2  5g0   
   21.1 Ag    1  5g4+         0.231900     1.000000
              2  5g4+  
   22.1 Ag    1  5g2+         0.231900     1.000000
              2  5g2+  
    1.2 B3u   1  2px          6.250000     0.003388    0.000000    0.000000    0.000000
    2.2 B3u   2  2px          1.370000     0.019316    0.000000    0.000000    0.000000
    3.2 B3u                   0.367200     0.079104    0.000000    0.000000    0.000000
    4.2 B3u                   0.119200     0.274095    1.000000    0.000000    0.000000
                              0.044740     0.519488    0.000000    1.000000    0.000000
                              0.017950     0.284423    0.000000    0.000000    1.000000
    5.2 B3u   1  3d1+         0.335200     1.000000
              2 -3d1+  
    6.2 B3u   1  3d1+         0.148200     1.000000
              2 -3d1+  
    7.2 B3u   1  3d1+         0.065600     1.000000
              2 -3d1+  
    8.2 B3u   1  4f1+         0.228000     1.000000
              2  4f1+  
    9.2 B3u   1  4f3+         0.228000     1.000000
              2  4f3+  
   10.2 B3u   1  4f1+         0.113500     1.000000
              2  4f1+  
   11.2 B3u   1  4f3+         0.113500     1.000000
              2  4f3+  
   12.2 B3u   1  5g1+         0.231900     1.000000
              2 -5g1+  
   13.2 B3u   1  5g3+         0.231900     1.000000
              2 -5g3+  
    1.3 B2u   1  2py          6.250000     0.003388    0.000000    0.000000    0.000000
    2.3 B2u   2  2py          1.370000     0.019316    0.000000    0.000000    0.000000
    3.3 B2u                   0.367200     0.079104    0.000000    0.000000    0.000000
    4.3 B2u                   0.119200     0.274095    1.000000    0.000000    0.000000
                              0.044740     0.519488    0.000000    1.000000    0.000000
                              0.017950     0.284423    0.000000    0.000000    1.000000
    5.3 B2u   1  3d1-         0.335200     1.000000
              2 -3d1-  
    6.3 B2u   1  3d1-         0.148200     1.000000
              2 -3d1-  
    7.3 B2u   1  3d1-         0.065600     1.000000
              2 -3d1-  
    8.3 B2u   1  4f1-         0.228000     1.000000
              2  4f1-  
    9.3 B2u   1  4f3-         0.228000     1.000000
              2  4f3-  
   10.3 B2u   1  4f1-         0.113500     1.000000
              2  4f1-  
   11.3 B2u   1  4f3-         0.113500     1.000000
              2  4f3-  
   12.3 B2u   1  5g1-         0.231900     1.000000
              2 -5g1-  
   13.3 B2u   1  5g3-         0.231900     1.000000
              2 -5g3-  
    1.4 B1g   1  3d2-         0.335200     1.000000
              2  3d2-  
    2.4 B1g   1  3d2-         0.148200     1.000000
              2  3d2-  
    3.4 B1g   1  3d2-         0.065600     1.000000
              2  3d2-  
    4.4 B1g   1  4f2-         0.228000     1.000000
              2 -4f2-  
    5.4 B1g   1  4f2-         0.113500     1.000000
              2 -4f2-  
    6.4 B1g   1  5g2-         0.231900     1.000000
              2  5g2-  
    7.4 B1g   1  5g4-         0.231900     1.000000
              2  5g4-  
    1.5 B1u   1  1s        6601.000000     0.000117   -0.000018    0.000000    0.000000    0.000000
    2.5 B1u   2 -1s         989.700000     0.000911   -0.000142    0.000000    0.000000    0.000000
    3.5 B1u                 225.700000     0.004728   -0.000741    0.000000    0.000000    0.000000
    4.5 B1u                  64.290000     0.019197   -0.003020    0.000000    0.000000    0.000000
    5.5 B1u                  21.180000     0.063047   -0.010123    0.000000    0.000000    0.000000
                              7.724000     0.163208   -0.027094    0.000000    0.000000    0.000000
                              3.003000     0.314827   -0.057359    0.000000    0.000000    0.000000
                              1.212000     0.393936   -0.093895    0.000000    0.000000    0.000000
                              0.493000     0.196918   -0.121091    0.000000    0.000000    0.000000
                              0.095150     0.009997    0.276608    1.000000    0.000000    0.000000
                              0.047910    -0.005402    0.549548    0.000000    1.000000    0.000000
                              0.022200     0.001704    0.277385    0.000000    0.000000    1.000000
    6.5 B1u   1  2pz          6.250000     0.003388    0.000000    0.000000    0.000000
    7.5 B1u   2  2pz          1.370000     0.019316    0.000000    0.000000    0.000000
    8.5 B1u                   0.367200     0.079104    0.000000    0.000000    0.000000
    9.5 B1u                   0.119200     0.274095    1.000000    0.000000    0.000000
                              0.044740     0.519488    0.000000    1.000000    0.000000
                              0.017950     0.284423    0.000000    0.000000    1.000000
   10.5 B1u   1  3d0          0.335200     1.000000
              2 -3d0   
   11.5 B1u   1  3d2+         0.335200     1.000000
              2 -3d2+  
   12.5 B1u   1  3d0          0.148200     1.000000
              2 -3d0   
   13.5 B1u   1  3d2+         0.148200     1.000000
              2 -3d2+  
   14.5 B1u   1  3d0          0.065600     1.000000
              2 -3d0   
   15.5 B1u   1  3d2+         0.065600     1.000000
              2 -3d2+  
   16.5 B1u   1  4f0          0.228000     1.000000
              2  4f0   
   17.5 B1u   1  4f2+         0.228000     1.000000
              2  4f2+  
   18.5 B1u   1  4f0          0.113500     1.000000
              2  4f0   
   19.5 B1u   1  4f2+         0.113500     1.000000
              2  4f2+  
   20.5 B1u   1  5g0          0.231900     1.000000
              2 -5g0   
   21.5 B1u   1  5g4+         0.231900     1.000000
              2 -5g4+  
   22.5 B1u   1  5g2+         0.231900     1.000000
              2 -5g2+  
    1.6 B2g   1  2px          6.250000     0.003388    0.000000    0.000000    0.000000
    2.6 B2g   2 -2px          1.370000     0.019316    0.000000    0.000000    0.000000
    3.6 B2g                   0.367200     0.079104    0.000000    0.000000    0.000000
    4.6 B2g                   0.119200     0.274095    1.000000    0.000000    0.000000
                              0.044740     0.519488    0.000000    1.000000    0.000000
                              0.017950     0.284423    0.000000    0.000000    1.000000
    5.6 B2g   1  3d1+         0.335200     1.000000
              2  3d1+  
    6.6 B2g   1  3d1+         0.148200     1.000000
              2  3d1+  
    7.6 B2g   1  3d1+         0.065600     1.000000
              2  3d1+  
    8.6 B2g   1  4f1+         0.228000     1.000000
              2 -4f1+  
    9.6 B2g   1  4f3+         0.228000     1.000000
              2 -4f3+  
   10.6 B2g   1  4f1+         0.113500     1.000000
              2 -4f1+  
   11.6 B2g   1  4f3+         0.113500     1.000000
              2 -4f3+  
   12.6 B2g   1  5g1+         0.231900     1.000000
              2  5g1+  
   13.6 B2g   1  5g3+         0.231900     1.000000
              2  5g3+  
    1.7 B3g   1  2py          6.250000     0.003388    0.000000    0.000000    0.000000
    2.7 B3g   2 -2py          1.370000     0.019316    0.000000    0.000000    0.000000
    3.7 B3g                   0.367200     0.079104    0.000000    0.000000    0.000000
    4.7 B3g                   0.119200     0.274095    1.000000    0.000000    0.000000
                              0.044740     0.519488    0.000000    1.000000    0.000000
                              0.017950     0.284423    0.000000    0.000000    1.000000
    5.7 B3g   1  3d1-         0.335200     1.000000
              2  3d1-  
    6.7 B3g   1  3d1-         0.148200     1.000000
              2  3d1-  
    7.7 B3g   1  3d1-         0.065600     1.000000
              2  3d1-  
    8.7 B3g   1  4f1-         0.228000     1.000000
              2 -4f1-  
    9.7 B3g   1  4f3-         0.228000     1.000000
              2 -4f3-  
   10.7 B3g   1  4f1-         0.113500     1.000000
              2 -4f1-  
   11.7 B3g   1  4f3-         0.113500     1.000000
              2 -4f3-  
   12.7 B3g   1  5g1-         0.231900     1.000000
              2  5g1-  
   13.7 B3g   1  5g3-         0.231900     1.000000
              2  5g3-  
    1.8 Au    1  3d2-         0.335200     1.000000
              2 -3d2-  
    2.8 Au    1  3d2-         0.148200     1.000000
              2 -3d2-  
    3.8 Au    1  3d2-         0.065600     1.000000
              2 -3d2-  
    4.8 Au    1  4f2-         0.228000     1.000000
              2  4f2-  
    5.8 Au    1  4f2-         0.113500     1.000000
              2  4f2-  
    6.8 Au    1  5g2-         0.231900     1.000000
              2 -5g2-  
    7.8 Au    1  5g4-         0.231900     1.000000
              2 -5g4-  

 NUCLEAR CHARGE:                    6
 NUMBER OF PRIMITIVE AOS:         166
 NUMBER OF SYMMETRY AOS:          136
 NUMBER OF CONTRACTIONS:          110   (   22Ag  +   13B3u +   13B2u +    7B1g +   22B1u +   13B2g +   13B3g +    7Au  )
 NUMBER OF CORE ORBITALS:           2   (    1Ag  +    0B3u +    0B2u +    0B1g +    1B1u +    0B2g +    0B3g +    0Au  )
 NUMBER OF VALENCE ORBITALS:        8   (    2Ag  +    1B3u +    1B2u +    0B1g +    2B1u +    1B2g +    1B3g +    0Au  )


 NUCLEAR REPULSION ENERGY    1.80000000

 EXTRA SYMMETRY OF AOS IN SYMMETRY 1:   1 1 1 1 1 1 1 1 1 1   2 1 2 1 2 1 2 1 2 1   3 2
 EXTRA SYMMETRY OF AOS IN SYMMETRY 2:   1 1 1 1 1 1 1 1 2 1   2 1 2
 EXTRA SYMMETRY OF AOS IN SYMMETRY 3:   1 1 1 1 1 1 1 1 2 1   2 1 2
 EXTRA SYMMETRY OF AOS IN SYMMETRY 4:   1 1 1 1 1 1 2
 EXTRA SYMMETRY OF AOS IN SYMMETRY 5:   1 1 1 1 1 1 1 1 1 1   2 1 2 1 2 1 2 1 2 1   3 2
 EXTRA SYMMETRY OF AOS IN SYMMETRY 6:   1 1 1 1 1 1 1 1 2 1   2 1 2
 EXTRA SYMMETRY OF AOS IN SYMMETRY 7:   1 1 1 1 1 1 1 1 2 1   2 1 2
 EXTRA SYMMETRY OF AOS IN SYMMETRY 8:   1 1 1 1 1 1 2

 Eigenvalues of metric

         1 0.994E-03 0.132E-02 0.325E-02 0.199E-01 0.547E-01 0.104E+00 0.149E+00 0.239E+00
         2 0.291E-02 0.573E-01 0.850E-01 0.172E+00 0.265E+00 0.482E+00 0.871E+00 0.113E+01
         3 0.291E-02 0.573E-01 0.850E-01 0.172E+00 0.265E+00 0.482E+00 0.871E+00 0.113E+01
         4 0.104E+00 0.239E+00 0.742E+00 0.106E+01 0.121E+01 0.202E+01 0.331E+01
         5 0.207E-03 0.332E-03 0.104E-02 0.290E-02 0.748E-02 0.380E-01 0.611E-01 0.743E-01
         6 0.112E-02 0.647E-02 0.162E-01 0.619E-01 0.145E+00 0.190E+00 0.218E+00 0.538E+00
         7 0.112E-02 0.647E-02 0.162E-01 0.619E-01 0.145E+00 0.190E+00 0.218E+00 0.538E+00
         8 0.611E-01 0.743E-01 0.274E+00 0.541E+00 0.945E+00 0.128E+01 0.214E+01


 Contracted 2-electron integrals neglected if value below      1.0D-11
 AO integral compression algorithm  1   Integral accuracy      1.0D-11

     15.729 MB (compressed) written to integral file ( 45.3%)


 NUMBER OF SORTED TWO-ELECTRON INTEGRALS:    2445884.     BUFFER LENGTH:  32768
 NUMBER OF SEGMENTS:   1  SEGMENT LENGTH:    2445884      RECORD LENGTH: 524288

 Memory used in sort:       3.00 MW

 SORT1 READ     4396992. AND WROTE     1896858. INTEGRALS IN      6 RECORDS. CPU TIME:     0.12 SEC, REAL TIME:     0.15 SEC
 SORT2 READ     1896858. AND WROTE     2445884. INTEGRALS IN     60 RECORDS. CPU TIME:     0.24 SEC, REAL TIME:     0.28 SEC

 FILE SIZES:   FILE 1:    46.0 MBYTE,  FILE 4:    25.2 MBYTE,   TOTAL:     71.2 MBYTE

 OPERATOR DM      FOR CENTER  0  COORDINATES:    0.000000    0.000000    0.000000


 **********************************************************************************************************************************
 DATASETS  * FILE   NREC   LENGTH (MB)   RECORD NAMES
              1      19       39.16       500      700      610      900      950      970     1000      129      960     1100   
                                          VAR     GEOM    BASINP   SYMINP    ZMAT    AOBASIS   BASIS     P2S    ABASIS      S 
                                         1400     1410     1200     1210     1080     1600     1650     1300     1700   
                                           T        V       H0       H01     AOSYM     SMH    MOLCAS    ERIS     OPER   

              3       5       14.82       500      610      700     1000     2100   
                                          VAR    BASINP    GEOM     BASIS     RHF  

 PROGRAMS   *        TOTAL       INT   RESTART
 CPU TIMES  *         1.30      1.18      0.02
 REAL TIME  *         1.55 SEC
 DISK USED  *        86.27 MB
 **********************************************************************************************************************************


 PROGRAM * CISD (Closed-shell CI(SD))     Authors: C. Hampel, H.-J. Werner, 1991, M. Deegan, P.J. Knowles, 1992


 Input parameters for THRESH:

 ENERGY   =    1.00D-10
 COEFF    =    1.00D-12
 PRINTCI  =    0.000000
 THRPRINT =    0.000000

 Convergence thresholds:  THRVAR = 1.00D-24  THRDEN = 1.00D-10

 Number of closed-shell orbitals:   3 (   2   0   0   0   1   0   0   0 )
 Number of external orbitals:     107 (  20  13  13   7  21  13  13   7 )

 Molecular orbitals read from record     2100.3  Type=RHF/CANONICAL (state 1.1)

 Number of N-1 electron functions:               3
 Number of N-2 electron functions:               6
 Number of singly external CSFs:                61
 Number of doubly external CSFs:              7426
 Total number of CSFs:                        7488

 Length of J-op  integral file:               0.00 MB
 Length of K-op  integral file:               0.15 MB

 Integral transformation finished. Total CPU:   0.01 sec, npass=  1  Memory used:   0.08 MW

 Reference energy:                    -14.87127592

 MP2 singlet pair energy:              -0.05337723
 MP2 triplet pair energy:              -0.00151225
 MP2 correlation energy:               -0.05488948
 MP2 total energy:                    -14.92616541

 SCS-MP2 correlation energy:           -0.06499364   (PS=  1.200000  PT=  0.333333)
 SCS-MP2 total energy:                -14.93626956

 ITER.      SQ.NORM     CORR.ENERGY   TOTAL ENERGY   ENERGY CHANGE        DEN1      VAR(S)    VAR(P)  DIIS     TIME  TIME/IT
   1      1.05045452    -0.06414909   -14.93542501    -0.00925960    -0.00588308  0.24D-03  0.19D-02  1  1     0.05     0.04
   2      1.06321331    -0.06541944   -14.93669536    -0.00127035    -0.00303390  0.52D-04  0.51D-03  2  2     0.08     0.04
   3      1.07460875    -0.06607382   -14.93734975    -0.00065438    -0.00171139  0.59D-05  0.90D-04  3  3     0.11     0.04
   4      1.08230509    -0.06640669   -14.93768262    -0.00033287    -0.00092243  0.65D-06  0.70D-05  4  4     0.14     0.03
   5      1.08316853    -0.06649211   -14.93776804    -0.00008542    -0.00004804  0.16D-06  0.14D-05  5  5     0.16     0.03
   6      1.08339670    -0.06649722   -14.93777314    -0.00000511    -0.00000504  0.25D-07  0.17D-06  6  6     0.18     0.03
   7      1.08345295    -0.06649842   -14.93777434    -0.00000120    -0.00000290  0.12D-07  0.28D-07  6  1     0.20     0.03
   8      1.08347638    -0.06649855   -14.93777447    -0.00000013    -0.00000236  0.40D-08  0.50D-08  6  2     0.22     0.03
   9      1.08348071    -0.06649858   -14.93777450    -0.00000002    -0.00000036  0.11D-08  0.66D-09  6  3     0.24     0.03
  10      1.08348058    -0.06649858   -14.93777450    -0.00000001     0.00000009  0.11D-09  0.13D-09  6  4     0.25     0.03
  11      1.08347927    -0.06649858   -14.93777451    -0.00000000     0.00000013  0.17D-10  0.18D-10  6  5     0.27     0.02
  12      1.08347832    -0.06649858   -14.93777451    -0.00000000     0.00000008  0.95D-12  0.33D-11  6  6     0.29     0.02
  13      1.08347752    -0.06649858   -14.93777451    -0.00000000     0.00000006  0.44D-13  0.39D-12  6  2     0.30     0.02
  14      1.08347728    -0.06649858   -14.93777451    -0.00000000     0.00000002  0.67D-14  0.65D-13  6  1     0.32     0.02
  15      1.08347718    -0.06649858   -14.93777451    -0.00000000     0.00000001  0.15D-14  0.13D-13  6  3     0.34     0.02
  16      1.08347713    -0.06649858   -14.93777451    -0.00000000     0.00000001  0.52D-15  0.20D-14  6  4     0.35     0.02
  17      1.08347712    -0.06649858   -14.93777451    -0.00000000     0.00000000  0.23D-15  0.48D-15  6  5     0.37     0.02
  18      1.08347711    -0.06649858   -14.93777451     0.00000000     0.00000000  0.79D-16  0.94D-16  6  6     0.39     0.02
  19      1.08347711    -0.06649858   -14.93777451     0.00000000    -0.00000000  0.25D-16  0.26D-16  6  2     0.40     0.02
  20      1.08347712    -0.06649858   -14.93777451    -0.00000000    -0.00000000  0.13D-17  0.14D-17  6  3     0.42     0.02
  21      1.08347712    -0.06649858   -14.93777451    -0.00000000     0.00000000  0.26D-18  0.39D-18  6  1     0.44     0.02
  22      1.08347712    -0.06649858   -14.93777451     0.00000000     0.00000000  0.58D-19  0.15D-18  6  4     0.45     0.02
  23      1.08347712    -0.06649858   -14.93777451     0.00000000     0.00000000  0.91D-20  0.46D-19  6  5     0.47     0.02
  24      1.08347712    -0.06649858   -14.93777451    -0.00000000     0.00000000  0.36D-21  0.50D-20  6  6     0.49     0.02
  25      1.08347712    -0.06649858   -14.93777451     0.00000000    -0.00000000  0.60D-22  0.11D-20  6  2     0.50     0.02
  26      1.08347712    -0.06649858   -14.93777451    -0.00000000    -0.00000000  0.70D-22  0.30D-21  6  3     0.52     0.02
  27      1.08347712    -0.06649858   -14.93777451     0.00000000     0.00000000  0.12D-22  0.73D-22  6  4     0.54     0.02
  28      1.08347712    -0.06649858   -14.93777451     0.00000000     0.00000000  0.84D-23  0.22D-22  6  1     0.55     0.02
  29      1.08347712    -0.06649858   -14.93777451    -0.00000000     0.00000000  0.30D-23  0.11D-22  6  5     0.57     0.02
  30      1.08347712    -0.06649858   -14.93777451    -0.00000000    -0.00000000  0.20D-23  0.72D-23  6  2     0.58     0.02
  31      1.08347712    -0.06649858   -14.93777451     0.00000000     0.00000000  0.12D-23  0.32D-23  6  6     0.60     0.02
  32      1.08347712    -0.06649858   -14.93777451     0.00000000     0.00000000  0.76D-24  0.19D-23  6  3     0.62     0.02
  33      1.08347712    -0.06649858   -14.93777451    -0.00000000     0.00000000  0.68D-24  0.16D-23  6  4     0.63     0.02
  34      1.08347712    -0.06649858   -14.93777451    -0.00000000     0.00000000  0.34D-24  0.69D-24  6  5     0.65     0.02
  35      1.08347712    -0.06649858   -14.93777451    -0.00000000     0.00000000  0.23D-24  0.49D-24  6  6     0.66     0.02


 ! DIPOLE MOMENTS:                      0.00000000     0.00000000     0.00000000



 Norm of t1 vector:      0.03735691      S-energy:    -0.00008565      T1 diagnostic:  0.01078401

 Singles amplitudes (print threshold =  0.000E+00):

         I         SYM. A    A   T(IA)

         1         1         1      0.00024330
         1         1         2     -0.00065830
         1         1         3     -0.00035263
         1         1         4      0.00000000
         1         1         5      0.00053698
         1         1         6      0.00061997
         1         1         7      0.00203456
         1         1         8     -0.00000000
         1         1         9     -0.00000000
         1         1        10     -0.00007152
         1         1        11     -0.00010919
         1         1        12      0.00032952
         1         1        13     -0.00000000
         1         1        14      0.00000000
         1         1        15      0.00007617
         1         1        16      0.00000000
         1         1        17     -0.00022532
         1         1        18      0.00000000
         1         1        19     -0.00085037
         1         1        20     -0.00137569
         2         1         1      0.01627788
         2         1         2     -0.01739682
         2         1         3      0.00639785
         2         1         4     -0.00000000
         2         1         5      0.00714681
         2         1         6     -0.00026169
         2         1         7      0.00391005
         2         1         8      0.00000000
         2         1         9      0.00000000
         2         1        10      0.00000583
         2         1        11      0.00015796
         2         1        12     -0.00032787
         2         1        13     -0.00000000
         2         1        14      0.00000000
         2         1        15     -0.00008777
         2         1        16     -0.00000000
         2         1        17     -0.00009395
         2         1        18     -0.00000000
         2         1        19     -0.00017075
         2         1        20     -0.00023381
         3         5         1     -0.00106609
         3         5         2      0.00105850
         3         5         3     -0.00048763
         3         5         4     -0.00132841
         3         5         5     -0.00000000
         3         5         6      0.00009671
         3         5         7      0.00212956
         3         5         8     -0.00001040
         3         5         9      0.00000000
         3         5        10      0.00015978
         3         5        11     -0.00000000
         3         5        12      0.00135978
         3         5        13      0.00000000
         3         5        14     -0.00000000
         3         5        15      0.00063527
         3         5        16     -0.00155092
         3         5        17     -0.00000000
         3         5        18     -0.00008907
         3         5        19      0.00000000
         3         5        20      0.00081271
         3         5        21     -0.00041102

 Doubles amplitudes (print threshold =  0.000E+00):

         I         J         SYM. A    SYM. B    A         B      T(IJ, AB)

         1         1         1         1         1         1     -0.00006244
         1         1         1         1         1         2      0.00009626
         1         1         1         1         1         3     -0.00006653
         1         1         1         1         1         4      0.00000000
         1         1         1         1         1         5     -0.00019580
         1         1         1         1         1         6      0.00004978
         1         1         1         1         1         7     -0.00021079
         1         1         1         1         1         8     -0.00000000
         1         1         1         1         1         9      0.00000000
         1         1         1         1         1        10     -0.00013230
         1         1         1         1         1        11     -0.00010853
         1         1         1         1         1        12     -0.00041114
         1         1         1         1         1        13      0.00000000
         1         1         1         1         1        14      0.00000000
         1         1         1         1         1        15      0.00006340
         1         1         1         1         1        16     -0.00000000
         1         1         1         1         1        17     -0.00019612
         1         1         1         1         1        18      0.00000000
         1         1         1         1         1        19     -0.00021363
         1         1         1         1         1        20      0.00074941
         1         1         1         1         2         1      0.00009626
         1         1         1         1         2         2     -0.00020993
         1         1         1         1         2         3     -0.00003455
         1         1         1         1         2         4     -0.00000000
         1         1         1         1         2         5      0.00025190
         1         1         1         1         2         6      0.00011773
         1         1         1         1         2         7      0.00062843
         1         1         1         1         2         8      0.00000000
         1         1         1         1         2         9     -0.00000000
         1         1         1         1         2        10      0.00007164
         1         1         1         1         2        11      0.00004738
         1         1         1         1         2        12      0.00038512
         1         1         1         1         2        13     -0.00000000
         1         1         1         1         2        14      0.00000000
         1         1         1         1         2        15     -0.00000156
         1         1         1         1         2        16      0.00000000
         1         1         1         1         2        17      0.00005561
         1         1         1         1         2        18     -0.00000000
         1         1         1         1         2        19     -0.00022156
         1         1         1         1         2        20     -0.00164934
         1         1         1         1         3         1     -0.00006653
         1         1         1         1         3         2     -0.00003455
         1         1         1         1         3         3     -0.00030508
         1         1         1         1         3         4     -0.00000000
         1         1         1         1         3         5     -0.00021065
         1         1         1         1         3         6      0.00037155
         1         1         1         1         3         7      0.00041571
         1         1         1         1         3         8      0.00000000
         1         1         1         1         3         9     -0.00000000
         1         1         1         1         3        10     -0.00030195
         1         1         1         1         3        11     -0.00027369
         1         1         1         1         3        12     -0.00066004
         1         1         1         1         3        13     -0.00000000
         1         1         1         1         3        14      0.00000000
         1         1         1         1         3        15      0.00020342
         1         1         1         1         3        16      0.00000000
         1         1         1         1         3        17     -0.00054271
         1         1         1         1         3        18      0.00000000
         1         1         1         1         3        19     -0.00108808
         1         1         1         1         3        20     -0.00044957
         1         1         1         1         4         1      0.00000000
         1         1         1         1         4         2     -0.00000000
         1         1         1         1         4         3     -0.00000000
         1         1         1         1         4         4      0.00000698
         1         1         1         1         4         5     -0.00000000
         1         1         1         1         4         6     -0.00000000
         1         1         1         1         4         7     -0.00000000
         1         1         1         1         4         8      0.00000305
         1         1         1         1         4         9     -0.00000332
         1         1         1         1         4        10      0.00000000
         1         1         1         1         4        11      0.00000000
         1         1         1         1         4        12      0.00000000
         1         1         1         1         4        13      0.00000017
         1         1         1         1         4        14     -0.00000000
         1         1         1         1         4        15      0.00000000
         1         1         1         1         4        16     -0.00000226
         1         1         1         1         4        17      0.00000000
         1         1         1         1         4        18     -0.00002752
         1         1         1         1         4        19     -0.00000000
         1         1         1         1         4        20     -0.00000000
         1         1         1         1         5         1     -0.00019580
         1         1         1         1         5         2      0.00025190
         1         1         1         1         5         3     -0.00021065
         1         1         1         1         5         4     -0.00000000
         1         1         1         1         5         5     -0.00047366
         1         1         1         1         5         6      0.00013756
         1         1         1         1         5         7     -0.00043871
         1         1         1         1         5         8     -0.00000000
         1         1         1         1         5         9      0.00000000
         1         1         1         1         5        10     -0.00029866
         1         1         1         1         5        11     -0.00026725
         1         1         1         1         5        12     -0.00091778
         1         1         1         1         5        13     -0.00000000
         1         1         1         1         5        14      0.00000000
         1         1         1         1         5        15      0.00012820
         1         1         1         1         5        16      0.00000000
         1         1         1         1         5        17     -0.00044716
         1         1         1         1         5        18      0.00000000
         1         1         1         1         5        19     -0.00055781
         1         1         1         1         5        20      0.00159658
         1         1         1         1         6         1      0.00004978
         1         1         1         1         6         2      0.00011773
         1         1         1         1         6         3      0.00037155
         1         1         1         1         6         4     -0.00000000
         1         1         1         1         6         5      0.00013756
         1         1         1         1         6         6     -0.00046255
         1         1         1         1         6         7     -0.00072533
         1         1         1         1         6         8      0.00000000
         1         1         1         1         6         9      0.00000000
         1         1         1         1         6        10      0.00030307
         1         1         1         1         6        11      0.00028795
         1         1         1         1         6        12      0.00057622
         1         1         1         1         6        13     -0.00000000
         1         1         1         1         6        14      0.00000000
         1         1         1         1         6        15     -0.00022586
         1         1         1         1         6        16      0.00000000
         1         1         1         1         6        17      0.00058755
         1         1         1         1         6        18     -0.00000000
         1         1         1         1         6        19      0.00131943
         1         1         1         1         6        20      0.00120850
         1         1         1         1         7         1     -0.00021079
         1         1         1         1         7         2      0.00062843
         1         1         1         1         7         3      0.00041571
         1         1         1         1         7         4     -0.00000000
         1         1         1         1         7         5     -0.00043871
         1         1         1         1         7         6     -0.00072533
         1         1         1         1         7         7     -0.00210481
         1         1         1         1         7         8      0.00000000
         1         1         1         1         7         9      0.00000000
         1         1         1         1         7        10      0.00016508
         1         1         1         1         7        11      0.00019083
         1         1         1         1         7        12     -0.00021635
         1         1         1         1         7        13     -0.00000000
         1         1         1         1         7        14      0.00000000
         1         1         1         1         7        15     -0.00023315
         1         1         1         1         7        16     -0.00000000
         1         1         1         1         7        17      0.00048599
         1         1         1         1         7        18     -0.00000000
         1         1         1         1         7        19      0.00183338
         1         1         1         1         7        20      0.00476460
         1         1         1         1         8         1     -0.00000000
         1         1         1         1         8         2      0.00000000
         1         1         1         1         8         3      0.00000000
         1         1         1         1         8         4      0.00000305
         1         1         1         1         8         5     -0.00000000
         1         1         1         1         8         6      0.00000000
         1         1         1         1         8         7      0.00000000
         1         1         1         1         8         8      0.00000636
         1         1         1         1         8         9     -0.00000112
         1         1         1         1         8        10      0.00000000
         1         1         1         1         8        11     -0.00000000
         1         1         1         1         8        12     -0.00000000
         1         1         1         1         8        13      0.00000089
         1         1         1         1         8        14      0.00000000
         1         1         1         1         8        15      0.00000000
         1         1         1         1         8        16     -0.00000020
         1         1         1         1         8        17     -0.00000000
         1         1         1         1         8        18     -0.00001481
         1         1         1         1         8        19     -0.00000000
         1         1         1         1         8        20      0.00000000
         1         1         1         1         9         1      0.00000000
         1         1         1         1         9         2     -0.00000000
         1         1         1         1         9         3     -0.00000000
         1         1         1         1         9         4     -0.00000332
         1         1         1         1         9         5      0.00000000
         1         1         1         1         9         6      0.00000000
         1         1         1         1         9         7      0.00000000
         1         1         1         1         9         8     -0.00000112
         1         1         1         1         9         9     -0.00000650
         1         1         1         1         9        10      0.00000000
         1         1         1         1         9        11     -0.00000000
         1         1         1         1         9        12     -0.00000000
         1         1         1         1         9        13     -0.00000075
         1         1         1         1         9        14      0.00000000
         1         1         1         1         9        15     -0.00000000
         1         1         1         1         9        16     -0.00000472
         1         1         1         1         9        17     -0.00000000
         1         1         1         1         9        18     -0.00005205
         1         1         1         1         9        19     -0.00000000
         1         1         1         1         9        20      0.00000000
         1         1         1         1        10         1     -0.00013230
         1         1         1         1        10         2      0.00007164
         1         1         1         1        10         3     -0.00030195
         1         1         1         1        10         4      0.00000000
         1         1         1         1        10         5     -0.00029866
         1         1         1         1        10         6      0.00030307
         1         1         1         1        10         7      0.00016508
         1         1         1         1        10         8      0.00000000
         1         1         1         1        10         9      0.00000000
         1         1         1         1        10        10     -0.00029085
         1         1         1         1        10        11     -0.00026576
         1         1         1         1        10        12     -0.00073862
         1         1         1         1        10        13      0.00000000
         1         1         1         1        10        14     -0.00000000
         1         1         1         1        10        15      0.00019892
         1         1         1         1        10        16      0.00000000
         1         1         1         1        10        17     -0.00053576
         1         1         1         1        10        18      0.00000000
         1         1         1         1        10        19     -0.00093875
         1         1         1         1        10        20      0.00013973
         1         1         1         1        11         1     -0.00010853
         1         1         1         1        11         2      0.00004738
         1         1         1         1        11         3     -0.00027369
         1         1         1         1        11         4      0.00000000
         1         1         1         1        11         5     -0.00026725
         1         1         1         1        11         6      0.00028795
         1         1         1         1        11         7      0.00019083
         1         1         1         1        11         8     -0.00000000
         1         1         1         1        11         9     -0.00000000
         1         1         1         1        11        10     -0.00026576
         1         1         1         1        11        11     -0.00026478
         1         1         1         1        11        12     -0.00064385
         1         1         1         1        11        13      0.00000000
         1         1         1         1        11        14      0.00000000
         1         1         1         1        11        15      0.00012956
         1         1         1         1        11        16      0.00000000
         1         1         1         1        11        17     -0.00045685
         1         1         1         1        11        18      0.00000000
         1         1         1         1        11        19     -0.00093765
         1         1         1         1        11        20      0.00003516
         1         1         1         1        12         1     -0.00041114
         1         1         1         1        12         2      0.00038512
         1         1         1         1        12         3     -0.00066004
         1         1         1         1        12         4      0.00000000
         1         1         1         1        12         5     -0.00091778
         1         1         1         1        12         6      0.00057622
         1         1         1         1        12         7     -0.00021635
         1         1         1         1        12         8     -0.00000000
         1         1         1         1        12         9     -0.00000000
         1         1         1         1        12        10     -0.00073862
         1         1         1         1        12        11     -0.00064385
         1         1         1         1        12        12     -0.00211478
         1         1         1         1        12        13      0.00000000
         1         1         1         1        12        14      0.00000000
         1         1         1         1        12        15      0.00050185
         1         1         1         1        12        16      0.00000000
         1         1         1         1        12        17     -0.00137277
         1         1         1         1        12        18      0.00000000
         1         1         1         1        12        19     -0.00207297
         1         1         1         1        12        20      0.00192706
         1         1         1         1        13         1      0.00000000
         1         1         1         1        13         2     -0.00000000
         1         1         1         1        13         3     -0.00000000
         1         1         1         1        13         4      0.00000017
         1         1         1         1        13         5     -0.00000000
         1         1         1         1        13         6     -0.00000000
         1         1         1         1        13         7     -0.00000000
         1         1         1         1        13         8      0.00000089
         1         1         1         1        13         9     -0.00000075
         1         1         1         1        13        10      0.00000000
         1         1         1         1        13        11      0.00000000
         1         1         1         1        13        12      0.00000000
         1         1         1         1        13        13     -0.00000568
         1         1         1         1        13        14     -0.00000000
         1         1         1         1        13        15     -0.00000000
         1         1         1         1        13        16      0.00000402
         1         1         1         1        13        17      0.00000000
         1         1         1         1        13        18     -0.00000474
         1         1         1         1        13        19      0.00000000
         1         1         1         1        13        20     -0.00000000
         1         1         1         1        14         1      0.00000000
         1         1         1         1        14         2      0.00000000
         1         1         1         1        14         3      0.00000000
         1         1         1         1        14         4     -0.00000000
         1         1         1         1        14         5      0.00000000
         1         1         1         1        14         6      0.00000000
         1         1         1         1        14         7      0.00000000
         1         1         1         1        14         8      0.00000000
         1         1         1         1        14         9      0.00000000
         1         1         1         1        14        10     -0.00000000
         1         1         1         1        14        11      0.00000000
         1         1         1         1        14        12      0.00000000
         1         1         1         1        14        13     -0.00000000
         1         1         1         1        14        14      0.00000219
         1         1         1         1        14        15     -0.00000000
         1         1         1         1        14        16      0.00000000
         1         1         1         1        14        17      0.00000000
         1         1         1         1        14        18     -0.00000000
         1         1         1         1        14        19     -0.00000000
         1         1         1         1        14        20     -0.00000000
         1         1         1         1        15         1      0.00006340
         1         1         1         1        15         2     -0.00000156
         1         1         1         1        15         3      0.00020342
         1         1         1         1        15         4      0.00000000
         1         1         1         1        15         5      0.00012820
         1         1         1         1        15         6     -0.00022586
         1         1         1         1        15         7     -0.00023315
         1         1         1         1        15         8      0.00000000
         1         1         1         1        15         9     -0.00000000
         1         1         1         1        15        10      0.00019892
         1         1         1         1        15        11      0.00012956
         1         1         1         1        15        12      0.00050185
         1         1         1         1        15        13     -0.00000000
         1         1         1         1        15        14     -0.00000000
         1         1         1         1        15        15     -0.00024742
         1         1         1         1        15        16      0.00000000
         1         1         1         1        15        17      0.00045428
         1         1         1         1        15        18     -0.00000000
         1         1         1         1        15        19      0.00068873
         1         1         1         1        15        20      0.00025547
         1         1         1         1        16         1     -0.00000000
         1         1         1         1        16         2      0.00000000
         1         1         1         1        16         3      0.00000000
         1         1         1         1        16         4     -0.00000226
         1         1         1         1        16         5      0.00000000
         1         1         1         1        16         6      0.00000000
         1         1         1         1        16         7     -0.00000000
         1         1         1         1        16         8     -0.00000020
         1         1         1         1        16         9     -0.00000472
         1         1         1         1        16        10      0.00000000
         1         1         1         1        16        11      0.00000000
         1         1         1         1        16        12      0.00000000
         1         1         1         1        16        13      0.00000402
         1         1         1         1        16        14      0.00000000
         1         1         1         1        16        15      0.00000000
         1         1         1         1        16        16     -0.00000222
         1         1         1         1        16        17      0.00000000
         1         1         1         1        16        18     -0.00002413
         1         1         1         1        16        19     -0.00000000
         1         1         1         1        16        20     -0.00000000
         1         1         1         1        17         1     -0.00019612
         1         1         1         1        17         2      0.00005561
         1         1         1         1        17         3     -0.00054271
         1         1         1         1        17         4      0.00000000
         1         1         1         1        17         5     -0.00044716
         1         1         1         1        17         6      0.00058755
         1         1         1         1        17         7      0.00048599
         1         1         1         1        17         8     -0.00000000
         1         1         1         1        17         9     -0.00000000
         1         1         1         1        17        10     -0.00053576
         1         1         1         1        17        11     -0.00045685
         1         1         1         1        17        12     -0.00137277
         1         1         1         1        17        13      0.00000000
         1         1         1         1        17        14      0.00000000
         1         1         1         1        17        15      0.00045428
         1         1         1         1        17        16      0.00000000
         1         1         1         1        17        17     -0.00111600
         1         1         1         1        17        18      0.00000000
         1         1         1         1        17        19     -0.00196017
         1         1         1         1        17        20     -0.00027576
         1         1         1         1        18         1      0.00000000
         1         1         1         1        18         2     -0.00000000
         1         1         1         1        18         3      0.00000000
         1         1         1         1        18         4     -0.00002752
         1         1         1         1        18         5      0.00000000
         1         1         1         1        18         6     -0.00000000
         1         1         1         1        18         7     -0.00000000
         1         1         1         1        18         8     -0.00001481
         1         1         1         1        18         9     -0.00005205
         1         1         1         1        18        10      0.00000000
         1         1         1         1        18        11      0.00000000
         1         1         1         1        18        12      0.00000000
         1         1         1         1        18        13     -0.00000474
         1         1         1         1        18        14     -0.00000000
         1         1         1         1        18        15     -0.00000000
         1         1         1         1        18        16     -0.00002413
         1         1         1         1        18        17      0.00000000
         1         1         1         1        18        18     -0.00022110
         1         1         1         1        18        19      0.00000000
         1         1         1         1        18        20     -0.00000000
         1         1         1         1        19         1     -0.00021363
         1         1         1         1        19         2     -0.00022156
         1         1         1         1        19         3     -0.00108808
         1         1         1         1        19         4     -0.00000000
         1         1         1         1        19         5     -0.00055781
         1         1         1         1        19         6      0.00131943
         1         1         1         1        19         7      0.00183338
         1         1         1         1        19         8     -0.00000000
         1         1         1         1        19         9     -0.00000000
         1         1         1         1        19        10     -0.00093875
         1         1         1         1        19        11     -0.00093765
         1         1         1         1        19        12     -0.00207297
         1         1         1         1        19        13      0.00000000
         1         1         1         1        19        14     -0.00000000
         1         1         1         1        19        15      0.00068873
         1         1         1         1        19        16     -0.00000000
         1         1         1         1        19        17     -0.00196017
         1         1         1         1        19        18      0.00000000
         1         1         1         1        19        19     -0.00444019
         1         1         1         1        19        20     -0.00316024
         1         1         1         1        20         1      0.00074941
         1         1         1         1        20         2     -0.00164934
         1         1         1         1        20         3     -0.00044957
         1         1         1         1        20         4     -0.00000000
         1         1         1         1        20         5      0.00159658
         1         1         1         1        20         6      0.00120850
         1         1         1         1        20         7      0.00476460
         1         1         1         1        20         8      0.00000000
         1         1         1         1        20         9      0.00000000
         1         1         1         1        20        10      0.00013973
         1         1         1         1        20        11      0.00003516
         1         1         1         1        20        12      0.00192706
         1         1         1         1        20        13     -0.00000000
         1         1         1         1        20        14     -0.00000000
         1         1         1         1        20        15      0.00025547
         1         1         1         1        20        16     -0.00000000
         1         1         1         1        20        17     -0.00027576
         1         1         1         1        20        18     -0.00000000
         1         1         1         1        20        19     -0.00316024
         1         1         1         1        20        20     -0.01450971
         1         1         2         2         1         1      0.00002925
         1         1         2         2         1         2      0.00003024
         1         1         2         2         1         3      0.00000311
         1         1         2         2         1         4     -0.00018452
         1         1         2         2         1         5      0.00000000
         1         1         2         2         1         6      0.00003763
         1         1         2         2         1         7      0.00002327
         1         1         2         2         1         8     -0.00056868
         1         1         2         2         1         9     -0.00000000
         1         1         2         2         1        10      0.00011101
         1         1         2         2         1        11     -0.00000000
         1         1         2         2         1        12      0.00004117
         1         1         2         2         1        13     -0.00009673
         1         1         2         2         2         1      0.00003024
         1         1         2         2         2         2     -0.00013458
         1         1         2         2         2         3      0.00002428
         1         1         2         2         2         4      0.00036165
         1         1         2         2         2         5     -0.00000000
         1         1         2         2         2         6     -0.00005731
         1         1         2         2         2         7     -0.00004299
         1         1         2         2         2         8      0.00107866
         1         1         2         2         2         9      0.00000000
         1         1         2         2         2        10     -0.00020962
         1         1         2         2         2        11      0.00000000
         1         1         2         2         2        12     -0.00007858
         1         1         2         2         2        13      0.00018397
         1         1         2         2         3         1      0.00000311
         1         1         2         2         3         2      0.00002428
         1         1         2         2         3         3     -0.00000137
         1         1         2         2         3         4     -0.00009249
         1         1         2         2         3         5     -0.00000000
         1         1         2         2         3         6      0.00001071
         1         1         2         2         3         7      0.00001323
         1         1         2         2         3         8     -0.00027834
         1         1         2         2         3         9     -0.00000000
         1         1         2         2         3        10      0.00004446
         1         1         2         2         3        11      0.00000000
         1         1         2         2         3        12     -0.00000162
         1         1         2         2         3        13     -0.00006981
         1         1         2         2         4         1     -0.00018452
         1         1         2         2         4         2      0.00036165
         1         1         2         2         4         3     -0.00009249
         1         1         2         2         4         4     -0.00064453
         1         1         2         2         4         5      0.00000000
         1         1         2         2         4         6      0.00007357
         1         1         2         2         4         7      0.00007102
         1         1         2         2         4         8     -0.00183430
         1         1         2         2         4         9      0.00000000
         1         1         2         2         4        10      0.00035623
         1         1         2         2         4        11     -0.00000000
         1         1         2         2         4        12      0.00014034
         1         1         2         2         4        13     -0.00030474
         1         1         2         2         5         1      0.00000000
         1         1         2         2         5         2     -0.00000000
         1         1         2         2         5         3     -0.00000000
         1         1         2         2         5         4      0.00000000
         1         1         2         2         5         5      0.00000499
         1         1         2         2         5         6     -0.00000000
         1         1         2         2         5         7     -0.00000000
         1         1         2         2         5         8      0.00000000
         1         1         2         2         5         9      0.00000122
         1         1         2         2         5        10     -0.00000000
         1         1         2         2         5        11      0.00000014
         1         1         2         2         5        12     -0.00000000
         1         1         2         2         5        13      0.00000000
         1         1         2         2         6         1      0.00003763
         1         1         2         2         6         2     -0.00005731
         1         1         2         2         6         3      0.00001071
         1         1         2         2         6         4      0.00007357
         1         1         2         2         6         5     -0.00000000
         1         1         2         2         6         6     -0.00001734
         1         1         2         2         6         7     -0.00000424
         1         1         2         2         6         8      0.00020894
         1         1         2         2         6         9      0.00000000
         1         1         2         2         6        10     -0.00006223
         1         1         2         2         6        11      0.00000000
         1         1         2         2         6        12     -0.00006257
         1         1         2         2         6        13     -0.00001395
         1         1         2         2         7         1      0.00002327
         1         1         2         2         7         2     -0.00004299
         1         1         2         2         7         3      0.00001323
         1         1         2         2         7         4      0.00007102
         1         1         2         2         7         5     -0.00000000
         1         1         2         2         7         6     -0.00000424
         1         1         2         2         7         7     -0.00000440
         1         1         2         2         7         8      0.00019797
         1         1         2         2         7         9      0.00000000
         1         1         2         2         7        10     -0.00003599
         1         1         2         2         7        11      0.00000000
         1         1         2         2         7        12     -0.00001008
         1         1         2         2         7        13      0.00003755
         1         1         2         2         8         1     -0.00056868
         1         1         2         2         8         2      0.00107866
         1         1         2         2         8         3     -0.00027834
         1         1         2         2         8         4     -0.00183430
         1         1         2         2         8         5      0.00000000
         1         1         2         2         8         6      0.00020894
         1         1         2         2         8         7      0.00019797
         1         1         2         2         8         8     -0.00567778
         1         1         2         2         8         9     -0.00000000
         1         1         2         2         8        10      0.00112206
         1         1         2         2         8        11     -0.00000000
         1         1         2         2         8        12      0.00045987
         1         1         2         2         8        13     -0.00094961
         1         1         2         2         9         1     -0.00000000
         1         1         2         2         9         2      0.00000000
         1         1         2         2         9         3     -0.00000000
         1         1         2         2         9         4      0.00000000
         1         1         2         2         9         5      0.00000122
         1         1         2         2         9         6      0.00000000
         1         1         2         2         9         7      0.00000000
         1         1         2         2         9         8     -0.00000000
         1         1         2         2         9         9      0.00000294
         1         1         2         2         9        10      0.00000000
         1         1         2         2         9        11     -0.00000179
         1         1         2         2         9        12      0.00000000
         1         1         2         2         9        13     -0.00000000
         1         1         2         2        10         1      0.00011101
         1         1         2         2        10         2     -0.00020962
         1         1         2         2        10         3      0.00004446
         1         1         2         2        10         4      0.00035623
         1         1         2         2        10         5     -0.00000000
         1         1         2         2        10         6     -0.00006223
         1         1         2         2        10         7     -0.00003599
         1         1         2         2        10         8      0.00112206
         1         1         2         2        10         9      0.00000000
         1         1         2         2        10        10     -0.00025277
         1         1         2         2        10        11      0.00000000
         1         1         2         2        10        12     -0.00013593
         1         1         2         2        10        13      0.00013959
         1         1         2         2        11         1     -0.00000000
         1         1         2         2        11         2      0.00000000
         1         1         2         2        11         3      0.00000000
         1         1         2         2        11         4     -0.00000000
         1         1         2         2        11         5      0.00000014
         1         1         2         2        11         6      0.00000000
         1         1         2         2        11         7      0.00000000
         1         1         2         2        11         8     -0.00000000
         1         1         2         2        11         9     -0.00000179
         1         1         2         2        11        10      0.00000000
         1         1         2         2        11        11     -0.00000652
         1         1         2         2        11        12      0.00000000
         1         1         2         2        11        13     -0.00000000
         1         1         2         2        12         1      0.00004117
         1         1         2         2        12         2     -0.00007858
         1         1         2         2        12         3     -0.00000162
         1         1         2         2        12         4      0.00014034
         1         1         2         2        12         5     -0.00000000
         1         1         2         2        12         6     -0.00006257
         1         1         2         2        12         7     -0.00001008
         1         1         2         2        12         8      0.00045987
         1         1         2         2        12         9      0.00000000
         1         1         2         2        12        10     -0.00013593
         1         1         2         2        12        11      0.00000000
         1         1         2         2        12        12     -0.00013777
         1         1         2         2        12        13     -0.00003307
         1         1         2         2        13         1     -0.00009673
         1         1         2         2        13         2      0.00018397
         1         1         2         2        13         3     -0.00006981
         1         1         2         2        13         4     -0.00030474
         1         1         2         2        13         5      0.00000000
         1         1         2         2        13         6     -0.00001395
         1         1         2         2        13         7      0.00003755
         1         1         2         2        13         8     -0.00094961
         1         1         2         2        13         9     -0.00000000
         1         1         2         2        13        10      0.00013959
         1         1         2         2        13        11     -0.00000000
         1         1         2         2        13        12     -0.00003307
         1         1         2         2        13        13     -0.00027642
         1         1         3         3         1         1      0.00002925
         1         1         3         3         1         2      0.00003024
         1         1         3         3         1         3      0.00000311
         1         1         3         3         1         4     -0.00018452
         1         1         3         3         1         5     -0.00000000
         1         1         3         3         1         6      0.00003763
         1         1         3         3         1         7      0.00002327
         1         1         3         3         1         8     -0.00056868
         1         1         3         3         1         9      0.00000000
         1         1         3         3         1        10      0.00011101
         1         1         3         3         1        11      0.00000000
         1         1         3         3         1        12      0.00004117
         1         1         3         3         1        13     -0.00009673
         1         1         3         3         2         1      0.00003024
         1         1         3         3         2         2     -0.00013458
         1         1         3         3         2         3      0.00002428
         1         1         3         3         2         4      0.00036165
         1         1         3         3         2         5      0.00000000
         1         1         3         3         2         6     -0.00005731
         1         1         3         3         2         7     -0.00004299
         1         1         3         3         2         8      0.00107866
         1         1         3         3         2         9     -0.00000000
         1         1         3         3         2        10     -0.00020962
         1         1         3         3         2        11     -0.00000000
         1         1         3         3         2        12     -0.00007858
         1         1         3         3         2        13      0.00018397
         1         1         3         3         3         1      0.00000311
         1         1         3         3         3         2      0.00002428
         1         1         3         3         3         3     -0.00000137
         1         1         3         3         3         4     -0.00009249
         1         1         3         3         3         5      0.00000000
         1         1         3         3         3         6      0.00001071
         1         1         3         3         3         7      0.00001323
         1         1         3         3         3         8     -0.00027834
         1         1         3         3         3         9      0.00000000
         1         1         3         3         3        10      0.00004446
         1         1         3         3         3        11     -0.00000000
         1         1         3         3         3        12     -0.00000162
         1         1         3         3         3        13     -0.00006981
         1         1         3         3         4         1     -0.00018452
         1         1         3         3         4         2      0.00036165
         1         1         3         3         4         3     -0.00009249
         1         1         3         3         4         4     -0.00064453
         1         1         3         3         4         5     -0.00000000
         1         1         3         3         4         6      0.00007357
         1         1         3         3         4         7      0.00007102
         1         1         3         3         4         8     -0.00183430
         1         1         3         3         4         9     -0.00000000
         1         1         3         3         4        10      0.00035623
         1         1         3         3         4        11      0.00000000
[...]
         3         2         6         2        13         9     -0.00000000
         3         2         6         2        13        10     -0.00002017
         3         2         6         2        13        11      0.00000000
         3         2         6         2        13        12      0.00015505
         3         2         6         2        13        13      0.00017047
         3         2         7         3         1         1     -0.00012376
         3         2         7         3         1         2      0.00017544
         3         2         7         3         1         3     -0.00006168
         3         2         7         3         1         4     -0.00017520
         3         2         7         3         1         5      0.00000000
         3         2         7         3         1         6     -0.00003602
         3         2         7         3         1         7      0.00001549
         3         2         7         3         1         8     -0.00003825
         3         2         7         3         1         9     -0.00000000
         3         2         7         3         1        10     -0.00001234
         3         2         7         3         1        11      0.00000000
         3         2         7         3         1        12     -0.00002264
         3         2         7         3         1        13     -0.00001702
         3         2         7         3         2         1     -0.00049173
         3         2         7         3         2         2      0.00069568
         3         2         7         3         2         3     -0.00024754
         3         2         7         3         2         4     -0.00069682
         3         2         7         3         2         5     -0.00000000
         3         2         7         3         2         6     -0.00014582
         3         2         7         3         2         7      0.00006283
         3         2         7         3         2         8     -0.00015834
         3         2         7         3         2         9      0.00000000
         3         2         7         3         2        10     -0.00004688
         3         2         7         3         2        11      0.00000000
         3         2         7         3         2        12     -0.00009125
         3         2         7         3         2        13     -0.00006851
         3         2         7         3         3         1      0.00024308
         3         2         7         3         3         2     -0.00034187
         3         2         7         3         3         3      0.00010642
         3         2         7         3         3         4      0.00034987
         3         2         7         3         3         5     -0.00000000
         3         2         7         3         3         6      0.00004496
         3         2         7         3         3         7     -0.00002656
         3         2         7         3         3         8      0.00008066
         3         2         7         3         3         9      0.00000000
         3         2         7         3         3        10      0.00001905
         3         2         7         3         3        11      0.00000000
         3         2         7         3         3        12      0.00003452
         3         2         7         3         3        13      0.00002605
         3         2         7         3         4         1     -0.00095259
         3         2         7         3         4         2      0.00135370
         3         2         7         3         4         3     -0.00052332
         3         2         7         3         4         4     -0.00136864
         3         2         7         3         4         5      0.00000000
         3         2         7         3         4         6     -0.00036057
         3         2         7         3         4         7      0.00013224
         3         2         7         3         4         8     -0.00034008
         3         2         7         3         4         9     -0.00000000
         3         2         7         3         4        10     -0.00012629
         3         2         7         3         4        11      0.00000000
         3         2         7         3         4        12     -0.00021626
         3         2         7         3         4        13     -0.00017037
         3         2         7         3         5         1     -0.00000000
         3         2         7         3         5         2      0.00000000
         3         2         7         3         5         3     -0.00000000
         3         2         7         3         5         4     -0.00000000
         3         2         7         3         5         5     -0.00000985
         3         2         7         3         5         6      0.00000000
         3         2         7         3         5         7      0.00000000
         3         2         7         3         5         8     -0.00000000
         3         2         7         3         5         9     -0.00000359
         3         2         7         3         5        10      0.00000000
         3         2         7         3         5        11     -0.00001125
         3         2         7         3         5        12      0.00000000
         3         2         7         3         5        13     -0.00000000
         3         2         7         3         6         1     -0.00043836
         3         2         7         3         6         2      0.00061954
         3         2         7         3         6         3     -0.00018619
         3         2         7         3         6         4     -0.00065129
         3         2         7         3         6         5     -0.00000000
         3         2         7         3         6         6     -0.00006699
         3         2         7         3         6         7      0.00004855
         3         2         7         3         6         8     -0.00016956
         3         2         7         3         6         9      0.00000000
         3         2         7         3         6        10     -0.00002594
         3         2         7         3         6        11      0.00000000
         3         2         7         3         6        12     -0.00006047
         3         2         7         3         6        13     -0.00004894
         3         2         7         3         7         1     -0.00081316
         3         2         7         3         7         2      0.00117890
         3         2         7         3         7         3     -0.00054966
         3         2         7         3         7         4     -0.00122443
         3         2         7         3         7         5     -0.00000000
         3         2         7         3         7         6     -0.00049396
         3         2         7         3         7         7      0.00013474
         3         2         7         3         7         8     -0.00033508
         3         2         7         3         7         9      0.00000000
         3         2         7         3         7        10     -0.00019407
         3         2         7         3         7        11      0.00000000
         3         2         7         3         7        12     -0.00027279
         3         2         7         3         7        13     -0.00021663
         3         2         7         3         8         1     -0.00094429
         3         2         7         3         8         2      0.00135569
         3         2         7         3         8         3     -0.00046729
         3         2         7         3         8         4     -0.00149194
         3         2         7         3         8         5     -0.00000000
         3         2         7         3         8         6     -0.00023302
         3         2         7         3         8         7      0.00014502
         3         2         7         3         8         8     -0.00037627
         3         2         7         3         8         9     -0.00000000
         3         2         7         3         8        10     -0.00009269
         3         2         7         3         8        11      0.00000000
         3         2         7         3         8        12     -0.00022783
         3         2         7         3         8        13     -0.00016453
         3         2         7         3         9         1      0.00000000
         3         2         7         3         9         2     -0.00000000
         3         2         7         3         9         3     -0.00000000
         3         2         7         3         9         4      0.00000000
         3         2         7         3         9         5     -0.00004755
         3         2         7         3         9         6     -0.00000000
         3         2         7         3         9         7      0.00000000
         3         2         7         3         9         8      0.00000000
         3         2         7         3         9         9     -0.00003928
         3         2         7         3         9        10     -0.00000000
         3         2         7         3         9        11     -0.00010279
         3         2         7         3         9        12     -0.00000000
         3         2         7         3         9        13      0.00000000
         3         2         7         3        10         1      0.00000000
         3         2         7         3        10         2     -0.00000000
         3         2         7         3        10         3     -0.00000000
         3         2         7         3        10         4     -0.00000000
         3         2         7         3        10         5     -0.00001322
         3         2         7         3        10         6      0.00000000
         3         2         7         3        10         7      0.00000000
         3         2         7         3        10         8      0.00000000
         3         2         7         3        10         9     -0.00004281
         3         2         7         3        10        10     -0.00000000
         3         2         7         3        10        11     -0.00001595
         3         2         7         3        10        12     -0.00000000
         3         2         7         3        10        13      0.00000000
         3         2         7         3        11         1     -0.00051914
         3         2         7         3        11         2      0.00074712
         3         2         7         3        11         3     -0.00025093
         3         2         7         3        11         4     -0.00083435
         3         2         7         3        11         5     -0.00000000
         3         2         7         3        11         6     -0.00013838
         3         2         7         3        11         7      0.00005307
         3         2         7         3        11         8     -0.00019522
         3         2         7         3        11         9     -0.00000000
         3         2         7         3        11        10     -0.00011712
         3         2         7         3        11        11      0.00000000
         3         2         7         3        11        12     -0.00009839
         3         2         7         3        11        13     -0.00007898
         3         2         7         3        12         1     -0.00044124
         3         2         7         3        12         2      0.00067945
         3         2         7         3        12         3     -0.00046423
         3         2         7         3        12         4     -0.00075470
         3         2         7         3        12         5     -0.00000000
         3         2         7         3        12         6     -0.00063204
         3         2         7         3        12         7      0.00010330
         3         2         7         3        12         8     -0.00029307
         3         2         7         3        12         9     -0.00000000
         3         2         7         3        12        10     -0.00037764
         3         2         7         3        12        11      0.00000000
         3         2         7         3        12        12     -0.00038480
         3         2         7         3        12        13     -0.00030518
         3         2         7         3        13         1      0.00043287
         3         2         7         3        13         2     -0.00062728
         3         2         7         3        13         3      0.00024787
         3         2         7         3        13         4      0.00070627
         3         2         7         3        13         5      0.00000000
         3         2         7         3        13         6      0.00013998
         3         2         7         3        13         7     -0.00009471
         3         2         7         3        13         8      0.00014056
         3         2         7         3        13         9      0.00000000
         3         2         7         3        13        10     -0.00002017
         3         2         7         3        13        11     -0.00000000
         3         2         7         3        13        12      0.00015505
         3         2         7         3        13        13      0.00017047
         3         2         8         4         1         1     -0.00004179
         3         2         8         4         1         2     -0.00002470
         3         2         8         4         1         3     -0.00006325
         3         2         8         4         1         4     -0.00001184
         3         2         8         4         1         5     -0.00000000
         3         2         8         4         1         6     -0.00000200
         3         2         8         4         1         7     -0.00004982
         3         2         8         4         2         1      0.00006506
         3         2         8         4         2         2      0.00003399
         3         2         8         4         2         3      0.00009867
         3         2         8         4         2         4      0.00001554
         3         2         8         4         2         5     -0.00000000
         3         2         8         4         2         6      0.00000482
         3         2         8         4         2         7      0.00007132
         3         2         8         4         3         1     -0.00011163
         3         2         8         4         3         2     -0.00007598
         3         2         8         4         3         3     -0.00016443
         3         2         8         4         3         4     -0.00004312
         3         2         8         4         3         5      0.00000000
         3         2         8         4         3         6     -0.00000010
         3         2         8         4         3         7     -0.00011946
         3         2         8         4         4         1      0.00000000
         3         2         8         4         4         2      0.00000000
         3         2         8         4         4         3     -0.00000000
         3         2         8         4         4         4      0.00000000
         3         2         8         4         4         5     -0.00003126
         3         2         8         4         4         6     -0.00000000
         3         2         8         4         4         7      0.00000000
         3         2         8         4         5         1     -0.00001511
         3         2         8         4         5         2     -0.00005544
         3         2         8         4         5         3     -0.00001376
         3         2         8         4         5         4     -0.00010269
         3         2         8         4         5         5     -0.00000000
         3         2         8         4         5         6      0.00002714
         3         2         8         4         5         7     -0.00001221
         3         2         8         4         6         1     -0.00023351
         3         2         8         4         6         2     -0.00017142
         3         2         8         4         6         3     -0.00039629
         3         2         8         4         6         4     -0.00014624
         3         2         8         4         6         5     -0.00000000
         3         2         8         4         6         6     -0.00001762
         3         2         8         4         6         7     -0.00041973
         3         2         8         4         7         1      0.00004052
         3         2         8         4         7         2      0.00000263
         3         2         8         4         7         3      0.00007422
         3         2         8         4         7         4     -0.00005395
         3         2         8         4         7         5      0.00000000
         3         2         8         4         7         6     -0.00001286
         3         2         8         4         7         7      0.00009748


 RESULTS
 =======

  Reference energy                    -14.871275922556

  Correlated core orbitals:             1.1       1.5
  Orbital energies:                    -2.4528   -2.4524

  CISD core-core energy                -0.031346591332
  CISD core-valence energy             -0.003534553172
  CISD valence correlation energy      -0.031617438887

  CISD singlet pair energy             -0.064860044804
  CISD triplet pair energy             -0.001552886839
  CISD correlation energy              -0.066498583390

 !CISD total energy                   -14.937774505946

 Timing summary (sec):

 STEP                 CPU(USER)    SYS     CPU(TOT)    WALL
 Transformation          0.01      0.01      0.02      0.01
 CCSD iterations         0.69      0.05      0.74      0.75

 Program statistics:

 Available memory in ccsd:                39999164
 Min. memory needed in ccsd:                 46689
 Max. memory used in ccsd:                   51202
 Max. memory used in cckext:                 74925 (35 integral passes)



 **********************************************************************************************************************************
 DATASETS  * FILE   NREC   LENGTH (MB)   RECORD NAMES
              1      20       39.33       500      700      610      900      950      970     1000      129      960     1100   
                                          VAR     GEOM    BASINP   SYMINP    ZMAT    AOBASIS   BASIS     P2S    ABASIS      S 
                                         1400     1410     1200     1210     1080     1600     1650     1300     1700     1380   
                                           T        V       H0       H01     AOSYM     SMH    MOLCAS    ERIS     OPER     JKOP   

              3       5       14.82       500      610      700     1000     2100   
                                          VAR    BASINP    GEOM     BASIS     RHF  

 PROGRAMS   *        TOTAL      CISD       INT   RESTART
 CPU TIMES  *         2.07      0.77      1.18      0.02
 REAL TIME  *         2.39 SEC
 DISK USED  *        86.27 MB
 **********************************************************************************************************************************
 Molecular orbitals read from record     2100.3  Type=RHF/CANONICAL (state 1.1)
 Occupation numbers read from record     2100.3  Type=RHF/RHF (state 1.1)
 Orbital energies read from record       2100.3  Type=RHF/CANONICAL (state 1.1)
 Redundancy group numbers read from rec  2100.3  Type=RHF/RHF (state 1.1)

 CISD/cc-pVQZ energy=    -14.937774505946

            CISD
    -14.93777451
 **********************************************************************************************************************************
 Molpro calculation terminated
