
 Primary working directories    : /scr/yuriaoto/job.022758/molpro.vWzRS1ZvTj
 Secondary working directories  : /scr/yuriaoto/job.022758/molpro.vWzRS1ZvTj
 Wavefunction directory         : /scr/yuriaoto/job.022758/
 Main file repository           : /scr/yuriaoto/job.022758/molpro.vWzRS1ZvTj/

 id        : yuriaoto

 Nodes             nprocs
 t-rex.ufabc.int.br    1

 Using customized tuning parameters: mindgm=8; mindgv=16; mindgc=1; mindgr=1; noblas=0; minvec=7
 default implementation of scratch files=df  


 Variables initialized (933), CPU time= 0.00 sec
 ***,
 memory,40,m
 gprint,orbital=15,basis
 gthresh,thrprint=0
 file,3,wfu.dat,new
 
 r = 5.0
 basis = cc-pVQZ
 
 symmetry,x,y,z
 geom={Li1;Li2,Li1,r}
 
 {rhf
 wf,6,1,0
 orbital,2100.3
 }
 
 {put,xml,orbitals.xml; nosort; novariables}
 
 Commands  initialized (760), CPU time= 0.01 sec, 617 directives.
 Default parameters read. Elapsed time= 0.04 sec

 Checking input...
 Passed
1


                                         ***  PROGRAM SYSTEM MOLPRO  ***
                                       Copyright, TTI GmbH Stuttgart, 2015
                                    Version 2019.2 linked Abr  7 2019 15:10:35


 **********************************************************************************************************************************
 LABEL *                                                                                 
  64 bit serial version                                                                  DATE: 10-Feb-20          TIME: 10:56:03  
 **********************************************************************************************************************************

 SHA1:             3a8a58c585c929645742fb5a1b7541a4ad1da699
 **********************************************************************************************************************************


 THRESHOLDS:

 ZERO    =  1.00D-12  ONEINT  =  1.00D-12  TWOINT  =  1.00D-11  PREFAC  =  1.00D-14  XXXXXX  =  1.00D-09  EORDER  =  1.00D-04
 ENERGY  =  0.00D+00  ETEST   =  0.00D+00  EDENS   =  0.00D+00  THRDEDEF=  1.00D-06  GRADIENT=  1.00D-02  STEP    =  1.00D-03
 ORBITAL =  1.00D-05  CIVEC   =  1.00D-05  COEFF   =  1.00D-04  PRINTCI =  5.00D-02  PUNCHCI =  9.90D+01  OPTGRAD =  3.00D-04
 OPTENERG=  1.00D-06  OPTSTEP =  3.00D-04  THRGRAD =  1.00D-10  COMPRESS=  1.00D-11  VARMIN  =  1.00D-07  VARMAX  =  1.00D-03
 THRDOUB =  0.00D+00  THRDIV  =  1.00D-05  THRRED  =  1.00D-07  THRPSP  =  1.00D+00  THRDC   =  1.00D-10  THRCS   =  1.00D-10
 THRNRM  =  1.00D-08  THREQ   =  0.00D+00  THRDE   =  1.00D+00  THRREF  =  1.00D-05  SPARFAC =  1.00D+00  THRDLP  =  1.00D-07
 THRDIA  =  1.00D-10  THRDLS  =  1.00D-07  THRGPS  =  0.00D+00  THRKEX  =  0.00D+00  THRDIS  =  2.00D-01  THRVAR  =  1.00D-10
 THRLOC  =  1.00D-06  THRGAP  =  1.00D-06  THRLOCT = -1.00D+00  THRGAPT = -1.00D+00  THRORB  =  1.00D-06  THRMLTP =  0.00D+00
 THRCPQCI=  1.00D-10  KEXTA   =  0.00D+00  THRCOARS=  0.00D+00  SYMTOL  =  1.00D-06  GRADTOL =  1.00D-06  THROVL  =  1.00D-08
 THRORTH =  1.00D-08  GRID    =  1.00D-06  GRIDMAX =  1.00D-03  DTMAX   =  0.00D+00  THROCCDE=  1.00D-01  THROCCDE=  1.00D-01
 THRPRINT=  0.00D+00


 Variable memory set to   40000000 words,  buffer space 



 Permanent file  3  wfu.dat  assigned.  Implementation=df  



 **********************************************************************************************************************************
 DATASETS  * FILE   NREC   LENGTH (MB)   RECORD NAMES
              3       1        0.03       500   
                                          VAR  

 PROGRAMS   *        TOTAL      FILE
 CPU TIMES  *         0.10      0.00
 REAL TIME  *         0.11 SEC
 DISK USED  *         0.09 MB
 **********************************************************************************************************************************
 SETTING R              =         5.00000000                                  
 SETTING BASIS          =    CC-PVQZ
 ZSYMEL=X  Y  Z  



 Recomputing integrals since basis changed


 Using spherical harmonics

 Library entry LI     S cc-pVQZ              selected for orbital group  1
 Library entry LI     P cc-pVQZ              selected for orbital group  1
 Library entry LI     D cc-pVQZ              selected for orbital group  1
 Library entry LI     F cc-pVQZ              selected for orbital group  1
 Library entry LI     G cc-pVQZ              selected for orbital group  1


 PROGRAM * SEWARD (Integral evaluation for generally contracted gaussian basis sets)     Author: Roland Lindh, 1990

 Geometry written to block  1 of record 700

 Orientation using atomic masses  
 Molecule type: Linear
 User-specified symmetry elements: X,Y,Z
 Symmetry elements: X,Y,Z
 Rotational constants:      20.8009354     20.8009354      0.0000000 GHz  (calculated with average atomic masses)

 Point group  D2h 



 ATOMIC COORDINATES

 NR  ATOM    CHARGE       X              Y              Z

   1  LI1     3.00    0.000000000    0.000000000   -2.500000000
   2  LI2     3.00    0.000000000    0.000000000    2.500000000

 Bond lengths in Bohr (Angstrom)

 1-2  5.000000000
     ( 2.645886055)


 BASIS DATA

   Nr Sym  Nuc  Type         Exponents   Contraction coefficients

    1.1 Ag    1  1s        6601.000000     0.000117   -0.000018    0.000000    0.000000    0.000000
    2.1 Ag    2  1s         989.700000     0.000911   -0.000142    0.000000    0.000000    0.000000
    3.1 Ag                  225.700000     0.004728   -0.000741    0.000000    0.000000    0.000000
    4.1 Ag                   64.290000     0.019197   -0.003020    0.000000    0.000000    0.000000
    5.1 Ag                   21.180000     0.063047   -0.010123    0.000000    0.000000    0.000000
                              7.724000     0.163208   -0.027094    0.000000    0.000000    0.000000
                              3.003000     0.314827   -0.057359    0.000000    0.000000    0.000000
                              1.212000     0.393936   -0.093895    0.000000    0.000000    0.000000
                              0.493000     0.196918   -0.121091    0.000000    0.000000    0.000000
                              0.095150     0.009997    0.276608    1.000000    0.000000    0.000000
                              0.047910    -0.005402    0.549548    0.000000    1.000000    0.000000
                              0.022200     0.001704    0.277385    0.000000    0.000000    1.000000
    6.1 Ag    1  2pz          6.250000     0.003388    0.000000    0.000000    0.000000
    7.1 Ag    2 -2pz          1.370000     0.019316    0.000000    0.000000    0.000000
    8.1 Ag                    0.367200     0.079104    0.000000    0.000000    0.000000
    9.1 Ag                    0.119200     0.274095    1.000000    0.000000    0.000000
                              0.044740     0.519488    0.000000    1.000000    0.000000
                              0.017950     0.284423    0.000000    0.000000    1.000000
   10.1 Ag    1  3d0          0.335200     1.000000
              2  3d0   
   11.1 Ag    1  3d2+         0.335200     1.000000
              2  3d2+  
   12.1 Ag    1  3d0          0.148200     1.000000
              2  3d0   
   13.1 Ag    1  3d2+         0.148200     1.000000
              2  3d2+  
   14.1 Ag    1  3d0          0.065600     1.000000
              2  3d0   
   15.1 Ag    1  3d2+         0.065600     1.000000
              2  3d2+  
   16.1 Ag    1  4f0          0.228000     1.000000
              2 -4f0   
   17.1 Ag    1  4f2+         0.228000     1.000000
              2 -4f2+  
   18.1 Ag    1  4f0          0.113500     1.000000
              2 -4f0   
   19.1 Ag    1  4f2+         0.113500     1.000000
              2 -4f2+  
   20.1 Ag    1  5g0          0.231900     1.000000
              2  5g0   
   21.1 Ag    1  5g4+         0.231900     1.000000
              2  5g4+  
   22.1 Ag    1  5g2+         0.231900     1.000000
              2  5g2+  
    1.2 B3u   1  2px          6.250000     0.003388    0.000000    0.000000    0.000000
    2.2 B3u   2  2px          1.370000     0.019316    0.000000    0.000000    0.000000
    3.2 B3u                   0.367200     0.079104    0.000000    0.000000    0.000000
    4.2 B3u                   0.119200     0.274095    1.000000    0.000000    0.000000
                              0.044740     0.519488    0.000000    1.000000    0.000000
                              0.017950     0.284423    0.000000    0.000000    1.000000
    5.2 B3u   1  3d1+         0.335200     1.000000
              2 -3d1+  
    6.2 B3u   1  3d1+         0.148200     1.000000
              2 -3d1+  
    7.2 B3u   1  3d1+         0.065600     1.000000
              2 -3d1+  
    8.2 B3u   1  4f1+         0.228000     1.000000
              2  4f1+  
    9.2 B3u   1  4f3+         0.228000     1.000000
              2  4f3+  
   10.2 B3u   1  4f1+         0.113500     1.000000
              2  4f1+  
   11.2 B3u   1  4f3+         0.113500     1.000000
              2  4f3+  
   12.2 B3u   1  5g1+         0.231900     1.000000
              2 -5g1+  
   13.2 B3u   1  5g3+         0.231900     1.000000
              2 -5g3+  
    1.3 B2u   1  2py          6.250000     0.003388    0.000000    0.000000    0.000000
    2.3 B2u   2  2py          1.370000     0.019316    0.000000    0.000000    0.000000
    3.3 B2u                   0.367200     0.079104    0.000000    0.000000    0.000000
    4.3 B2u                   0.119200     0.274095    1.000000    0.000000    0.000000
                              0.044740     0.519488    0.000000    1.000000    0.000000
                              0.017950     0.284423    0.000000    0.000000    1.000000
    5.3 B2u   1  3d1-         0.335200     1.000000
              2 -3d1-  
    6.3 B2u   1  3d1-         0.148200     1.000000
              2 -3d1-  
    7.3 B2u   1  3d1-         0.065600     1.000000
              2 -3d1-  
    8.3 B2u   1  4f1-         0.228000     1.000000
              2  4f1-  
    9.3 B2u   1  4f3-         0.228000     1.000000
              2  4f3-  
   10.3 B2u   1  4f1-         0.113500     1.000000
              2  4f1-  
   11.3 B2u   1  4f3-         0.113500     1.000000
              2  4f3-  
   12.3 B2u   1  5g1-         0.231900     1.000000
              2 -5g1-  
   13.3 B2u   1  5g3-         0.231900     1.000000
              2 -5g3-  
    1.4 B1g   1  3d2-         0.335200     1.000000
              2  3d2-  
    2.4 B1g   1  3d2-         0.148200     1.000000
              2  3d2-  
    3.4 B1g   1  3d2-         0.065600     1.000000
              2  3d2-  
    4.4 B1g   1  4f2-         0.228000     1.000000
              2 -4f2-  
    5.4 B1g   1  4f2-         0.113500     1.000000
              2 -4f2-  
    6.4 B1g   1  5g2-         0.231900     1.000000
              2  5g2-  
    7.4 B1g   1  5g4-         0.231900     1.000000
              2  5g4-  
    1.5 B1u   1  1s        6601.000000     0.000117   -0.000018    0.000000    0.000000    0.000000
    2.5 B1u   2 -1s         989.700000     0.000911   -0.000142    0.000000    0.000000    0.000000
    3.5 B1u                 225.700000     0.004728   -0.000741    0.000000    0.000000    0.000000
    4.5 B1u                  64.290000     0.019197   -0.003020    0.000000    0.000000    0.000000
    5.5 B1u                  21.180000     0.063047   -0.010123    0.000000    0.000000    0.000000
                              7.724000     0.163208   -0.027094    0.000000    0.000000    0.000000
                              3.003000     0.314827   -0.057359    0.000000    0.000000    0.000000
                              1.212000     0.393936   -0.093895    0.000000    0.000000    0.000000
                              0.493000     0.196918   -0.121091    0.000000    0.000000    0.000000
                              0.095150     0.009997    0.276608    1.000000    0.000000    0.000000
                              0.047910    -0.005402    0.549548    0.000000    1.000000    0.000000
                              0.022200     0.001704    0.277385    0.000000    0.000000    1.000000
    6.5 B1u   1  2pz          6.250000     0.003388    0.000000    0.000000    0.000000
    7.5 B1u   2  2pz          1.370000     0.019316    0.000000    0.000000    0.000000
    8.5 B1u                   0.367200     0.079104    0.000000    0.000000    0.000000
    9.5 B1u                   0.119200     0.274095    1.000000    0.000000    0.000000
                              0.044740     0.519488    0.000000    1.000000    0.000000
                              0.017950     0.284423    0.000000    0.000000    1.000000
   10.5 B1u   1  3d0          0.335200     1.000000
              2 -3d0   
   11.5 B1u   1  3d2+         0.335200     1.000000
              2 -3d2+  
   12.5 B1u   1  3d0          0.148200     1.000000
              2 -3d0   
   13.5 B1u   1  3d2+         0.148200     1.000000
              2 -3d2+  
   14.5 B1u   1  3d0          0.065600     1.000000
              2 -3d0   
   15.5 B1u   1  3d2+         0.065600     1.000000
              2 -3d2+  
   16.5 B1u   1  4f0          0.228000     1.000000
              2  4f0   
   17.5 B1u   1  4f2+         0.228000     1.000000
              2  4f2+  
   18.5 B1u   1  4f0          0.113500     1.000000
              2  4f0   
   19.5 B1u   1  4f2+         0.113500     1.000000
              2  4f2+  
   20.5 B1u   1  5g0          0.231900     1.000000
              2 -5g0   
   21.5 B1u   1  5g4+         0.231900     1.000000
              2 -5g4+  
   22.5 B1u   1  5g2+         0.231900     1.000000
              2 -5g2+  
    1.6 B2g   1  2px          6.250000     0.003388    0.000000    0.000000    0.000000
    2.6 B2g   2 -2px          1.370000     0.019316    0.000000    0.000000    0.000000
    3.6 B2g                   0.367200     0.079104    0.000000    0.000000    0.000000
    4.6 B2g                   0.119200     0.274095    1.000000    0.000000    0.000000
                              0.044740     0.519488    0.000000    1.000000    0.000000
                              0.017950     0.284423    0.000000    0.000000    1.000000
    5.6 B2g   1  3d1+         0.335200     1.000000
              2  3d1+  
    6.6 B2g   1  3d1+         0.148200     1.000000
              2  3d1+  
    7.6 B2g   1  3d1+         0.065600     1.000000
              2  3d1+  
    8.6 B2g   1  4f1+         0.228000     1.000000
              2 -4f1+  
    9.6 B2g   1  4f3+         0.228000     1.000000
              2 -4f3+  
   10.6 B2g   1  4f1+         0.113500     1.000000
              2 -4f1+  
   11.6 B2g   1  4f3+         0.113500     1.000000
              2 -4f3+  
   12.6 B2g   1  5g1+         0.231900     1.000000
              2  5g1+  
   13.6 B2g   1  5g3+         0.231900     1.000000
              2  5g3+  
    1.7 B3g   1  2py          6.250000     0.003388    0.000000    0.000000    0.000000
    2.7 B3g   2 -2py          1.370000     0.019316    0.000000    0.000000    0.000000
    3.7 B3g                   0.367200     0.079104    0.000000    0.000000    0.000000
    4.7 B3g                   0.119200     0.274095    1.000000    0.000000    0.000000
                              0.044740     0.519488    0.000000    1.000000    0.000000
                              0.017950     0.284423    0.000000    0.000000    1.000000
    5.7 B3g   1  3d1-         0.335200     1.000000
              2  3d1-  
    6.7 B3g   1  3d1-         0.148200     1.000000
              2  3d1-  
    7.7 B3g   1  3d1-         0.065600     1.000000
              2  3d1-  
    8.7 B3g   1  4f1-         0.228000     1.000000
              2 -4f1-  
    9.7 B3g   1  4f3-         0.228000     1.000000
              2 -4f3-  
   10.7 B3g   1  4f1-         0.113500     1.000000
              2 -4f1-  
   11.7 B3g   1  4f3-         0.113500     1.000000
              2 -4f3-  
   12.7 B3g   1  5g1-         0.231900     1.000000
              2  5g1-  
   13.7 B3g   1  5g3-         0.231900     1.000000
              2  5g3-  
    1.8 Au    1  3d2-         0.335200     1.000000
              2 -3d2-  
    2.8 Au    1  3d2-         0.148200     1.000000
              2 -3d2-  
    3.8 Au    1  3d2-         0.065600     1.000000
              2 -3d2-  
    4.8 Au    1  4f2-         0.228000     1.000000
              2  4f2-  
    5.8 Au    1  4f2-         0.113500     1.000000
              2  4f2-  
    6.8 Au    1  5g2-         0.231900     1.000000
              2 -5g2-  
    7.8 Au    1  5g4-         0.231900     1.000000
              2 -5g4-  

 NUCLEAR CHARGE:                    6
 NUMBER OF PRIMITIVE AOS:         166
 NUMBER OF SYMMETRY AOS:          136
 NUMBER OF CONTRACTIONS:          110   (   22Ag  +   13B3u +   13B2u +    7B1g +   22B1u +   13B2g +   13B3g +    7Au  )
 NUMBER OF CORE ORBITALS:           2   (    1Ag  +    0B3u +    0B2u +    0B1g +    1B1u +    0B2g +    0B3g +    0Au  )
 NUMBER OF VALENCE ORBITALS:        8   (    2Ag  +    1B3u +    1B2u +    0B1g +    2B1u +    1B2g +    1B3g +    0Au  )


 NUCLEAR REPULSION ENERGY    1.80000000

 EXTRA SYMMETRY OF AOS IN SYMMETRY 1:   1 1 1 1 1 1 1 1 1 1   2 1 2 1 2 1 2 1 2 1   3 2
 EXTRA SYMMETRY OF AOS IN SYMMETRY 2:   1 1 1 1 1 1 1 1 2 1   2 1 2
 EXTRA SYMMETRY OF AOS IN SYMMETRY 3:   1 1 1 1 1 1 1 1 2 1   2 1 2
 EXTRA SYMMETRY OF AOS IN SYMMETRY 4:   1 1 1 1 1 1 2
 EXTRA SYMMETRY OF AOS IN SYMMETRY 5:   1 1 1 1 1 1 1 1 1 1   2 1 2 1 2 1 2 1 2 1   3 2
 EXTRA SYMMETRY OF AOS IN SYMMETRY 6:   1 1 1 1 1 1 1 1 2 1   2 1 2
 EXTRA SYMMETRY OF AOS IN SYMMETRY 7:   1 1 1 1 1 1 1 1 2 1   2 1 2
 EXTRA SYMMETRY OF AOS IN SYMMETRY 8:   1 1 1 1 1 1 2

 Eigenvalues of metric

         1 0.994E-03 0.132E-02 0.325E-02 0.199E-01 0.547E-01 0.104E+00 0.149E+00 0.239E+00
         2 0.291E-02 0.573E-01 0.850E-01 0.172E+00 0.265E+00 0.482E+00 0.871E+00 0.113E+01
         3 0.291E-02 0.573E-01 0.850E-01 0.172E+00 0.265E+00 0.482E+00 0.871E+00 0.113E+01
         4 0.104E+00 0.239E+00 0.742E+00 0.106E+01 0.121E+01 0.202E+01 0.331E+01
         5 0.207E-03 0.332E-03 0.104E-02 0.290E-02 0.748E-02 0.380E-01 0.611E-01 0.743E-01
         6 0.112E-02 0.647E-02 0.162E-01 0.619E-01 0.145E+00 0.190E+00 0.218E+00 0.538E+00
         7 0.112E-02 0.647E-02 0.162E-01 0.619E-01 0.145E+00 0.190E+00 0.218E+00 0.538E+00
         8 0.611E-01 0.743E-01 0.274E+00 0.541E+00 0.945E+00 0.128E+01 0.214E+01


 Contracted 2-electron integrals neglected if value below      1.0D-11
 AO integral compression algorithm  1   Integral accuracy      1.0D-11

     15.729 MB (compressed) written to integral file ( 45.3%)


 NUMBER OF SORTED TWO-ELECTRON INTEGRALS:    2445884.     BUFFER LENGTH:  32768
 NUMBER OF SEGMENTS:   1  SEGMENT LENGTH:    2445884      RECORD LENGTH: 524288

 Memory used in sort:       3.00 MW

 SORT1 READ     4396992. AND WROTE     1896858. INTEGRALS IN      6 RECORDS. CPU TIME:     0.09 SEC, REAL TIME:     0.11 SEC
 SORT2 READ     1896858. AND WROTE     2445884. INTEGRALS IN     60 RECORDS. CPU TIME:     0.23 SEC, REAL TIME:     0.27 SEC

 FILE SIZES:   FILE 1:    46.0 MBYTE,  FILE 4:    25.2 MBYTE,   TOTAL:     71.2 MBYTE

 OPERATOR DM      FOR CENTER  0  COORDINATES:    0.000000    0.000000    0.000000


 **********************************************************************************************************************************
 DATASETS  * FILE   NREC   LENGTH (MB)   RECORD NAMES
              1      19       39.16       500      610      700      900      950      970     1000      129      960     1100   
                                          VAR    BASINP    GEOM    SYMINP    ZMAT    AOBASIS   BASIS     P2S    ABASIS      S 
                                         1400     1410     1200     1210     1080     1600     1650     1300     1700   
                                           T        V       H0       H01     AOSYM     SMH    MOLCAS    ERIS     OPER   

              3       4       12.30       500      610      700     1000   
                                          VAR    BASINP    GEOM     BASIS   

 PROGRAMS   *        TOTAL       INT      FILE
 CPU TIMES  *         1.16      1.05      0.00
 REAL TIME  *         1.37 SEC
 DISK USED  *        83.75 MB
 **********************************************************************************************************************************


 PROGRAM * RHF-SCF (CLOSED SHELL)       Authors: W. Meyer, H.-J. Werner


 NUMBER OF ELECTRONS:       3+    3-    SPACE SYMMETRY=1    SPIN SYMMETRY: Singlet 
 CONVERGENCE THRESHOLDS:    1.00E-05 (Density)    1.00E-07 (Energy)
 MAX. NUMBER OF ITERATIONS:       60
 INTERPOLATION TYPE:            DIIS
 INTERPOLATION STEPS:              2 (START)      1 (STEP)
 LEVEL SHIFTS:                  0.00 (CLOSED)  0.00 (OPEN) 



 Orbital guess generated from atomic densities. Full valence occupancy:    2   0   0   0   2   0   0   0


 Molecular orbital dump at record        2100.3

 Initial occupancy:   2   0   0   0   1   0   0   0

 ITERATION    DDIFF          GRAD             ENERGY        2-EL.EN.            DIPOLE MOMENTS         DIIS   ORB.
    1      0.000D+00      0.000D+00       -14.86963506     12.900364    0.00000    0.00000    0.00000    0    start
    2      0.000D+00      0.258D-02       -14.87096159     12.959346    0.00000    0.00000    0.00000    1    diag
    3      0.102D-01      0.987D-03       -14.87126758     12.992083    0.00000    0.00000    0.00000    2    diag
    4      0.650D-02      0.108D-03       -14.87127554     12.992646    0.00000    0.00000    0.00000    3    diag
    5      0.738D-03      0.219D-04       -14.87127592     12.992192    0.00000    0.00000    0.00000    4    diag
    6      0.165D-03      0.229D-05       -14.87127592     12.992105    0.00000    0.00000    0.00000    5    diag
    7      0.271D-04      0.275D-06       -14.87127592     12.992112    0.00000    0.00000    0.00000    6    diag
    8      0.267D-05      0.284D-07       -14.87127592     12.992112    0.00000    0.00000    0.00000    0    orth

 Final occupancy:   2   0   0   0   1   0   0   0

 !RHF STATE  1.1 Energy               -14.871275922556
 Nuclear energy                         1.80000000
 One-electron energy                  -23.16733205
 Two-electron energy                    6.49605613
 Virial quotient                       -0.99845623
 !RHF STATE  1.1 Dipole moment          0.00000000     0.00000000     0.00000000
 Dipole moment /Debye                   0.00000000     0.00000000     0.00000000

 MOLECULAR ORBITALS
 ==================

   Orb  Occ    Energy       Coefficients

                            1 1s      1 1s      1 1s      1 1s      1 1s      1 2pz     1 2pz     1 2pz     1 2pz     1 3d0  
                            1 3d2+    1 3d0     1 3d2+    1 3d0     1 3d2+    1 4f0     1 4f2+    1 4f0     1 4f2+    1 5g0  
                            1 5g4+    1 5g2+ 

   1.1   2    -2.4528     0.999563 -0.000304 -0.007005  0.005714 -0.001074 -0.066622  0.019906  0.036868  0.018843 -0.000848
                         -0.000000  0.001505  0.000000  0.002162 -0.000000  0.000188  0.000000  0.001712  0.000000  0.000734
                         -0.000000  0.000000

   2.1   2    -0.1825    -0.009876  0.988760 -0.060229 -0.171788 -0.041472  0.414710 -0.036976 -0.142841 -0.106615  0.002627
                          0.000000  0.005916 -0.000000  0.007486  0.000000  0.001253  0.000000  0.001119 -0.000000  0.000439
                          0.000000  0.000000

   3.1   0     0.0312    -0.008319  0.138939  0.235479  0.508988 -1.306453  0.347255  0.197115 -0.709510  1.435845  0.007919
                          0.000000  0.000046 -0.000000 -0.234065  0.000000  0.019475  0.000000 -0.096388 -0.000000 -0.007512
                          0.000000  0.000000

   4.1   0     0.0768     0.072783 -0.023420  1.189366 -3.113135  1.755392 -0.197362  0.211331 -0.564634  1.658749  0.046073
                         -0.000000 -0.111414  0.000000 -0.021148 -0.000000  0.013285  0.000000 -0.109795 -0.000000 -0.023038
                         -0.000000  0.000000

   5.1   0     0.1033     0.022680 -0.025184 -0.357567 -1.429023  1.382704  0.982477 -0.537624  1.513344 -1.684930 -0.026096
                         -0.000000  0.010927  0.000000  0.338973 -0.000000 -0.040234  0.000000  0.216163 -0.000000  0.018460
                          0.000000  0.000000

   6.1   0     0.1751     0.000000 -0.000000 -0.000000 -0.000000  0.000000 -0.000000  0.000000  0.000000  0.000000 -0.000000
                          0.111964 -0.000000 -0.386600  0.000000  1.065141 -0.000000  0.030237  0.000000 -0.081497 -0.000000
                          0.000000  0.006779

   7.1   0     0.2518     0.067808  0.725150  0.668340 -2.895567  0.914669  1.012523  0.291065 -1.076236  0.938919  0.157026
                          0.000000 -0.472919 -0.000000  1.474759  0.000000  0.036847  0.000000 -0.144296 -0.000000 -0.019953
                          0.000000  0.000000

   8.1   0     0.2851    -0.070610 -0.037620 -5.544177  1.220385  1.414054 -0.841483 -2.676094  6.422126 -0.703569 -0.031958
                          0.000000 -0.335877 -0.000000  4.131493  0.000000 -0.184018  0.000000  1.194958 -0.000000  0.122335
                          0.000000  0.000000

   9.1   0     0.3579     0.384121  3.289523  6.282834 -7.815108  0.240918 -0.065376  0.730816 -2.169806  0.195480  0.047548
                          0.000000  0.228108 -0.000000 -2.288966  0.000000  0.042498  0.000000 -0.482439 -0.000000 -0.100594
                         -0.000000 -0.000000

  10.1   0     0.4587     0.000000  0.000000  0.000000 -0.000000  0.000000  0.000000 -0.000000 -0.000000 -0.000000  0.000000
                         -0.018233 -0.000000  0.140362  0.000000 -0.245280  0.000000 -0.322984 -0.000000  1.077895  0.000000
                          0.000000 -0.043058

  11.1   0     0.5602     0.000000  0.000000  0.000000 -0.000000 -0.000000 -0.000000  0.000000 -0.000000  0.000000  0.000000
                         -0.282743 -0.000000  1.731139 -0.000000 -0.905029  0.000000  0.046368 -0.000000 -0.237625  0.000000
                         -0.000000  0.005333

  12.1   0     0.5992    -0.184279 -1.011552-10.239774  6.195649  0.708351  0.906371 -2.870721  5.955020 -0.943543 -0.060033
                         -0.000000 -0.727962  0.000000  5.438328 -0.000000 -0.431547  0.000000  2.937530 -0.000000  0.133245
                          0.000000  0.000000

  13.1   0     0.6276    -0.145471 -0.822997 -2.175795  2.975463 -0.377788  1.650607 -1.286332  0.392143 -1.277716 -0.341790
                         -0.000000  1.761065  0.000000 -0.571816 -0.000000 -0.164352  0.000000  0.577905  0.000000  0.070427
                          0.000000  0.000000

  14.1   0     1.1124    -0.046161  0.190978  2.205454 -1.349077 -0.093176  7.884303 -2.405507 -4.905632 -2.361780 -0.481627
                          0.000000  0.450913 -0.000000 -1.212073  0.000000  0.251258  0.000000 -0.719938 -0.000000  0.627350
                          0.000000  0.000000

  15.1   0     1.1539     0.000000  0.000000  0.000000 -0.000000 -0.000000 -0.000000  0.000000 -0.000000  0.000000  0.000000
                          0.041887 -0.000000 -0.129173 -0.000000  0.128594  0.000000  1.245625 -0.000000 -0.801879 -0.000000
                          0.000000  0.311049

  16.1   0     1.1914     0.000000  0.000000 -0.000000 -0.000000 -0.000000 -0.000000  0.000000  0.000000  0.000000 -0.000000
                         -0.000000  0.000000  0.000000  0.000000 -0.000000  0.000000 -0.000000  0.000000  0.000000  0.000000
                          0.973542 -0.000000

  17.1   0     1.3219    -0.161139 -0.701057  3.419120 -1.567661  0.152898 -1.780325  1.467858 -1.198303  0.990102  0.960229
                          0.000000 -0.922440 -0.000000 -1.083212  0.000000  1.185985  0.000000 -1.428244 -0.000000  0.048253
                         -0.000000 -0.000000

                            1 2px     1 2px     1 2px     1 2px     1 3d1+    1 3d1+    1 3d1+    1 4f1+    1 4f3+    1 4f1+ 
                            1 4f3+    1 5g1+    1 5g3+ 

   1.2   0     0.0243     0.279824  0.089320 -0.250283  0.678735 -0.000207  0.007079 -0.011863 -0.000399  0.000000  0.001448
                         -0.000000 -0.002362 -0.000000

   2.2   0     0.0935    -1.044311  0.377220 -0.857395  1.358266  0.003577 -0.016691  0.061124 -0.003838 -0.000000 -0.002145
                          0.000000 -0.007702 -0.000000

   3.2   0     0.2107     0.138290  0.075432 -0.724445  0.251695  0.119204 -0.417764  1.250070  0.034846 -0.000000 -0.075569
                          0.000000  0.020716 -0.000000

   4.2   0     0.3223     0.631005  1.414315 -2.024614  0.462007 -0.016995  0.062095 -0.175078 -0.023629  0.000000  0.078036
                         -0.000000 -0.026074  0.000000

   5.2   0     0.4219    -0.000000  0.000000 -0.000000  0.000000  0.000000 -0.000000 -0.000000 -0.000000 -0.325654  0.000000
                          1.110052 -0.000000 -0.023957

   6.2   0     0.5463    -0.002508 -0.403124  0.432548 -0.134471 -0.206005  1.410061 -0.880246 -0.153299  0.000000  0.375831
                         -0.000000 -0.051550  0.000000

   7.2   0     0.5982     0.110096 -1.168570  0.307584 -0.049633  0.155907 -1.251184  1.279715 -0.430063  0.000000  1.815243
                         -0.000000  0.065969  0.000000

   8.2   0     1.1008    14.839167 -5.771877 -6.657687 -4.561111 -0.031843 -0.018453  0.092641  0.138095  0.000000  0.065587
                         -0.000000  0.174045  0.000000

   9.2   0     1.1522    -0.000000  0.000000  0.000000  0.000000 -0.000000  0.000000 -0.000000 -0.000000  0.270932  0.000000
                         -0.256157 -0.000000  0.879885

  10.2   0     1.2076    -2.898267  1.452365  1.221139  0.868859  0.440387 -0.310551 -0.079339  1.361629  0.000000 -1.185980
                         -0.000000 -0.014752  0.000000

  11.2   0     1.2104     0.000000 -0.000000 -0.000000 -0.000000 -0.000000  0.000000  0.000000 -0.000000  1.456282  0.000000
                         -0.821198 -0.000000 -0.180381

  12.2   0     1.4078    -1.240733 -0.249988  0.790179  0.362269  1.078800 -1.507513  1.028639 -0.847407  0.000000  1.188656
                          0.000000  0.805941  0.000000

  13.2   0     1.7144     2.575561 -0.161181 -1.696502 -0.645521  1.433876 -0.912990  0.027008  0.300434 -0.000000 -0.722258
                          0.000000 -0.940734  0.000000

                            1 2py     1 2py     1 2py     1 2py     1 3d1-    1 3d1-    1 3d1-    1 4f1-    1 4f3-    1 4f1- 
                            1 4f3-    1 5g1-    1 5g3- 

   1.3   0     0.0243     0.279824  0.089320 -0.250283  0.678735 -0.000207  0.007079 -0.011863 -0.000399  0.000000  0.001448
                         -0.000000 -0.002362 -0.000000

   2.3   0     0.0935    -1.044311  0.377220 -0.857395  1.358266  0.003577 -0.016691  0.061124 -0.003838 -0.000000 -0.002145
                          0.000000 -0.007702 -0.000000

   3.3   0     0.2107     0.138290  0.075432 -0.724445  0.251695  0.119204 -0.417764  1.250070  0.034846 -0.000000 -0.075569
                          0.000000  0.020716 -0.000000

   4.3   0     0.3223     0.631005  1.414315 -2.024614  0.462007 -0.016995  0.062095 -0.175078 -0.023629  0.000000  0.078036
                         -0.000000 -0.026074 -0.000000

   5.3   0     0.4219     0.000000  0.000000 -0.000000  0.000000  0.000000 -0.000000  0.000000  0.000000 -0.325654 -0.000000
                          1.110052  0.000000 -0.023957

   6.3   0     0.5463    -0.002508 -0.403124  0.432548 -0.134471 -0.206005  1.410061 -0.880246 -0.153299 -0.000000  0.375831
                          0.000000 -0.051550 -0.000000

   7.3   0     0.5982     0.110096 -1.168570  0.307584 -0.049633  0.155907 -1.251184  1.279715 -0.430063 -0.000000  1.815243
                          0.000000  0.065969 -0.000000

   8.3   0     1.1008    14.839167 -5.771877 -6.657687 -4.561111 -0.031843 -0.018453  0.092641  0.138095  0.000000  0.065587
                         -0.000000  0.174045  0.000000

   9.3   0     1.1522    -0.000000  0.000000  0.000000  0.000000 -0.000000  0.000000 -0.000000 -0.000000  0.270932  0.000000
                         -0.256157 -0.000000  0.879885

  10.3   0     1.2076    -2.898267  1.452365  1.221139  0.868859  0.440387 -0.310551 -0.079339  1.361629  0.000000 -1.185980
                         -0.000000 -0.014752  0.000000

  11.3   0     1.2104     0.000000 -0.000000 -0.000000 -0.000000 -0.000000  0.000000  0.000000 -0.000000  1.456282  0.000000
                         -0.821198 -0.000000 -0.180381

  12.3   0     1.4078    -1.240733 -0.249988  0.790179  0.362269  1.078800 -1.507513  1.028639 -0.847407  0.000000  1.188656
                         -0.000000  0.805941  0.000000

  13.3   0     1.7144     2.575561 -0.161181 -1.696502 -0.645521  1.433876 -0.912990  0.027008  0.300434  0.000000 -0.722258
                         -0.000000 -0.940734  0.000000

                            1 3d2-    1 3d2-    1 3d2-    1 4f2-    1 4f2-    1 5g2-    1 5g4- 

   1.4   0     0.1751     0.111964 -0.386600  1.065141  0.030237 -0.081497  0.006779 -0.000000

   2.4   0     0.4587    -0.018233  0.140362 -0.245280 -0.322984  1.077895 -0.043058 -0.000000

   3.4   0     0.5602    -0.282743  1.731139 -0.905029  0.046368 -0.237625  0.005333 -0.000000

   4.4   0     1.1539     0.041887 -0.129173  0.128594  1.245625 -0.801879  0.311049  0.000000

   5.4   0     1.1914    -0.000000  0.000000 -0.000000 -0.000000  0.000000  0.000000  0.973542

   6.4   0     1.3315     0.206579 -0.463904  0.138083 -0.855179  0.542965  0.871867 -0.000000

   7.4   0     1.4772     1.704564 -1.587121  0.552623  0.075432 -0.010319 -0.078394  0.000000

                            1 1s      1 1s      1 1s      1 1s      1 1s      1 2pz     1 2pz     1 2pz     1 2pz     1 3d0  
                            1 3d2+    1 3d0     1 3d2+    1 3d0     1 3d2+    1 4f0     1 4f2+    1 4f0     1 4f2+    1 5g0  
                            1 5g4+    1 5g2+ 

   1.5   2    -2.4524     1.001337  0.006474  0.002461  0.017910 -0.000412 -0.066636  0.030164  0.044992  0.018957 -0.000175
                         -0.000000  0.003442  0.000000  0.004183 -0.000000  0.000279  0.000000  0.001314 -0.000000  0.000002
                         -0.000000  0.000000

   2.5   0     0.0056     0.001975 -0.468204  0.206482 -1.375041  2.243983  0.291386 -0.117789 -0.693893  1.344533  0.001977
                          0.000000 -0.032762  0.000000 -0.153859  0.000000 -0.003048 -0.000000 -0.022188  0.000000 -0.003304
                         -0.000000  0.000000

   3.5   0     0.0517    -0.004881  0.474400  0.538351 -4.990214 11.595839  0.031445 -0.446141 -1.889218  4.385042  0.015647
                          0.000000 -0.166901 -0.000000 -0.315543  0.000000 -0.019559  0.000000 -0.066990 -0.000000 -0.012132
                          0.000000  0.000000

   4.5   0     0.1172    -0.018278 -0.344714 -0.574119 11.040075 19.233225  0.199829  0.206851 11.528396  3.428767  0.042473
                         -0.000000 -0.306206  0.000000  2.422718 -0.000000 -0.072110 -0.000000  0.219518  0.000000  0.002657
                         -0.000000  0.000000

   5.5   0     0.1699    -0.015591 -0.801221  2.203166-19.164358  9.649717  0.877608 -1.260466-10.088705  3.142476  0.036089
                          0.000000 -0.364057 -0.000000 -1.818322  0.000000 -0.024055  0.000000 -0.293906 -0.000000 -0.034551
                         -0.000000  0.000000

   6.5   0     0.2277    -0.000000  0.000000  0.000000  0.000000  0.000000 -0.000000  0.000000  0.000000  0.000000 -0.000000
                          0.131456  0.000000 -0.504381  0.000000  1.720689 -0.000000 -0.007086  0.000000  0.026516  0.000000
                         -0.000000  0.010430

   7.5   0     0.2805    -0.051631 -0.231724 -1.572651 22.591380 11.167359 -1.019530  0.468962 16.938318  1.610229  0.120687
                         -0.000000 -0.635100  0.000000  5.057530 -0.000000 -0.084429 -0.000000  0.184554  0.000000  0.001780
                          0.000000 -0.000000

   8.5   0     0.4175     0.052003  1.674672  4.355462-22.877380 10.809828  1.664845 -3.274207 -7.919958  2.490817  0.126768
                         -0.000000 -1.447414  0.000000 -1.627989 -0.000000 -0.165382 -0.000000 -0.466810  0.000000 -0.087647
                          0.000000 -0.000000

   9.5   0     0.4975     0.124067  0.586635  3.689293-22.070515 -1.805043 -1.580037 -0.984109-10.468563  0.685556 -0.109831
                          0.000000  0.989443 -0.000000 -3.661597  0.000000 -0.164154 -0.000000  0.729575  0.000000 -0.012819
                          0.000000  0.000000

  10.5   0     0.5741    -0.000000 -0.000000 -0.000000  0.000000  0.000000  0.000000 -0.000000  0.000000 -0.000000  0.000000
                          0.150158 -0.000000 -0.973572  0.000000  1.894559 -0.000000 -0.349010  0.000000  1.949693 -0.000000
                          0.000000  0.075932

  11.5   0     0.6124     0.045600  0.391690  0.946173 19.113098  5.113337  1.186110  2.680439 11.706838  0.073075  0.056195
                          0.000000 -0.585180 -0.000000  5.119329 -0.000000 -0.482441  0.000000  2.152132 -0.000000  0.002374
                         -0.000000 -0.000000

  12.5   0     0.6357     0.000000  0.000000  0.000000  0.000000  0.000000  0.000000  0.000000  0.000000 -0.000000  0.000000
                         -0.239926 -0.000000  1.636602  0.000000 -0.287271 -0.000000 -0.304175  0.000000  1.375638  0.000000
                          0.000000  0.014810

  13.5   0     0.8801     0.439427  3.700067  4.508101-10.646410 -6.013970  2.895071  3.315049 -7.477061 -1.633742 -0.439325
                         -0.000000  4.021938  0.000000 -2.296338 -0.000000 -0.072479 -0.000000  0.821443  0.000000  0.074117
                          0.000000  0.000000

  14.5   0     1.2623     0.000000  0.000000  0.000000 -0.000000 -0.000000  0.000000  0.000000 -0.000000 -0.000000 -0.000000
                         -0.000000  0.000000  0.000000 -0.000000 -0.000000  0.000000 -0.000000 -0.000000  0.000000 -0.000000
                          1.028739  0.000000

  15.5   0     1.3380    -0.000000  0.000000  0.000000 -0.000000 -0.000000  0.000000 -0.000000 -0.000000 -0.000000 -0.000000
                         -0.039461  0.000000 -0.069162 -0.000000 -0.891981  0.000000  1.567763 -0.000000 -1.918876 -0.000000
                          0.000000 -0.598877

  16.5   0     1.3696     0.197740  2.029626  1.163090 -8.795167 -4.536349  2.434474  0.834871 -6.943874 -1.235120 -0.613541
                          0.000000  2.599515 -0.000000 -2.681862  0.000000  1.965817 -0.000000 -1.506985  0.000000 -0.272538
                         -0.000000  0.000000

                            1 2px     1 2px     1 2px     1 2px     1 3d1+    1 3d1+    1 3d1+    1 4f1+    1 4f3+    1 4f1+ 
                            1 4f3+    1 5g1+    1 5g3+ 

   1.6   0     0.0483     0.151472 -0.013292 -1.152861  2.738078  0.014544 -0.104351 -0.392000  0.009749  0.000000 -0.162943
                         -0.000000 -0.021834  0.000000

   2.6   0     0.1356     0.742587 -0.071067  2.835955 -2.483211 -0.051256  0.246418  0.623914 -0.020440  0.000000  0.384534
                         -0.000000  0.052420 -0.000000

   3.6   0     0.2793    -0.710243  0.363335  7.375415 -0.944501  0.063396 -0.143748  5.182324 -0.114340 -0.000000  0.986325
                          0.000000  0.081757  0.000000

   4.6   0     0.3349     1.507073  0.408563 -3.033091  0.934308  0.155784 -0.947362  0.148044  0.013715  0.000000 -0.798183
                         -0.000000 -0.115396 -0.000000

   5.6   0     0.4949    -0.000000 -0.000000 -0.000000  0.000000  0.000000 -0.000000 -0.000000  0.000000 -0.372197 -0.000000
                          1.434539 -0.000000 -0.008109

   6.6   0     0.5957     0.137954  2.247047  6.454582 -0.846606 -0.047467  0.291255  5.844604 -0.276546 -0.000000  2.969092
                          0.000000  0.154890  0.000000

   7.6   0     0.7633     2.821614  0.913038  0.749061 -1.595869 -0.447094  3.269417  0.823658 -0.127235  0.000000  1.843045
                          0.000000  0.207460 -0.000000

   8.6   0     1.1973    10.395008 -3.591175 -5.648873 -3.246711 -0.400662  1.004720 -1.000749  0.404452 -0.000000 -0.217251
                          0.000000  0.900938  0.000000

   9.6   0     1.2582     0.000000 -0.000000 -0.000000 -0.000000 -0.000000  0.000000 -0.000000  0.000000  1.560550 -0.000000
                         -1.113519  0.000000 -0.162774

  10.6   0     1.4109     0.000000 -0.000000 -0.000000 -0.000000 -0.000000 -0.000000 -0.000000  0.000000  0.155659 -0.000000
                          0.189113 -0.000000  1.189957

  11.6   0     1.4196     8.454777 -5.136731 -8.365021 -1.960363 -0.351051 -0.671272 -3.878955  1.230357 -0.000000 -2.680890
                          0.000000 -0.781846 -0.000000

  12.6   0     1.5967     5.500611 -3.181981 -3.926232 -1.198149  1.855047 -2.873878 -0.416666  0.430377 -0.000000 -1.273768
                         -0.000000 -0.015509 -0.000000

  13.6   0     2.1713   -14.148471 10.187334  8.777852  3.743025 -1.078740  6.972778  1.219850  2.921081 -0.000000  2.144300
                          0.000000  2.194431  0.000000

                            1 2py     1 2py     1 2py     1 2py     1 3d1-    1 3d1-    1 3d1-    1 4f1-    1 4f3-    1 4f1- 
                            1 4f3-    1 5g1-    1 5g3- 

   1.7   0     0.0483     0.151472 -0.013292 -1.152861  2.738078  0.014544 -0.104351 -0.392000  0.009749  0.000000 -0.162943
                         -0.000000 -0.021834  0.000000

   2.7   0     0.1356     0.742587 -0.071067  2.835955 -2.483211 -0.051256  0.246418  0.623914 -0.020440 -0.000000  0.384534
                          0.000000  0.052420 -0.000000

   3.7   0     0.2793    -0.710243  0.363335  7.375415 -0.944501  0.063396 -0.143748  5.182324 -0.114340  0.000000  0.986325
                         -0.000000  0.081757 -0.000000

   4.7   0     0.3349     1.507073  0.408563 -3.033091  0.934308  0.155784 -0.947362  0.148044  0.013715  0.000000 -0.798183
                         -0.000000 -0.115396  0.000000

   5.7   0     0.4949    -0.000000  0.000000  0.000000  0.000000  0.000000 -0.000000  0.000000  0.000000 -0.372197  0.000000
                          1.434539  0.000000 -0.008109

   6.7   0     0.5957     0.137954  2.247047  6.454582 -0.846606 -0.047467  0.291255  5.844604 -0.276546  0.000000  2.969092
                         -0.000000  0.154890  0.000000

   7.7   0     0.7633     2.821614  0.913038  0.749061 -1.595869 -0.447094  3.269417  0.823658 -0.127235 -0.000000  1.843045
                          0.000000  0.207460  0.000000

   8.7   0     1.1973    10.395008 -3.591175 -5.648873 -3.246711 -0.400662  1.004720 -1.000749  0.404452  0.000000 -0.217251
                         -0.000000  0.900938 -0.000000

   9.7   0     1.2582    -0.000000  0.000000  0.000000  0.000000  0.000000 -0.000000  0.000000 -0.000000  1.560550  0.000000
                         -1.113519 -0.000000 -0.162774

  10.7   0     1.4109     0.000000 -0.000000 -0.000000 -0.000000  0.000000 -0.000000 -0.000000  0.000000  0.155659 -0.000000
                          0.189113 -0.000000  1.189957

  11.7   0     1.4196     8.454777 -5.136731 -8.365021 -1.960363 -0.351051 -0.671272 -3.878955  1.230357  0.000000 -2.680890
                         -0.000000 -0.781846 -0.000000

  12.7   0     1.5967     5.500611 -3.181981 -3.926232 -1.198149  1.855047 -2.873878 -0.416666  0.430377  0.000000 -1.273768
                         -0.000000 -0.015509 -0.000000

  13.7   0     2.1713   -14.148471 10.187334  8.777852  3.743025 -1.078740  6.972778  1.219850  2.921081  0.000000  2.144300
                         -0.000000  2.194431  0.000000

                            1 3d2-    1 3d2-    1 3d2-    1 4f2-    1 4f2-    1 5g2-    1 5g4- 

   1.8   0     0.2277     0.131456 -0.504381  1.720689 -0.007086  0.026516  0.010430 -0.000000

   2.8   0     0.5741     0.150158 -0.973572  1.894559 -0.349010  1.949693  0.075932 -0.000000

   3.8   0     0.6357    -0.239926  1.636602 -0.287271 -0.304175  1.375638  0.014810  0.000000

   4.8   0     1.2623    -0.000000 -0.000000 -0.000000  0.000000 -0.000000 -0.000000  1.028739

   5.8   0     1.3380    -0.039461 -0.069162 -0.891981  1.567763 -1.918876 -0.598877 -0.000000

   6.8   0     1.4963     1.672436 -1.625346  0.780723  0.249395 -0.017696  0.315218  0.000000

   7.8   0     1.7097    -0.701375  1.490236  0.034304  0.835121  0.759309  1.594131  0.000000


 HOMO      2.1    -0.182465 =      -4.9651eV
 LUMO      2.5     0.005556 =       0.1512eV
 LUMO-HOMO         0.188021 =       5.1163eV


 **********************************************************************************************************************************
 DATASETS  * FILE   NREC   LENGTH (MB)   RECORD NAMES
              1      19       39.16       500      610      700      900      950      970     1000      129      960     1100   
                                          VAR    BASINP    GEOM    SYMINP    ZMAT    AOBASIS   BASIS     P2S    ABASIS      S 
                                         1400     1410     1200     1210     1080     1600     1650     1300     1700   
                                           T        V       H0       H01     AOSYM     SMH    MOLCAS    ERIS     OPER   

              3       5       14.82       500      610      700     1000     2100   
                                          VAR    BASINP    GEOM     BASIS     RHF  

 PROGRAMS   *        TOTAL   RHF-SCF       INT      FILE
 CPU TIMES  *         1.30      0.13      1.05      0.00
 REAL TIME  *         1.54 SEC
 DISK USED  *        83.75 MB
 **********************************************************************************************************************************

 Dump information in style XML to orbitals.xml                                                                    

 Variables will not be exported.
 Molecular orbitals read from record     2100.3  Type=RHF/CANONICAL (state 1.1)
 Occupation numbers read from record     2100.3  Type=RHF/RHF (state 1.1)
 Orbital energies read from record       2100.3  Type=RHF/CANONICAL (state 1.1)
 Redundancy group numbers read from rec  2100.3  Type=RHF/RHF (state 1.1)

 **********************************************************************************************************************************

 RHF/cc-pVQZ energy=    -14.871275922556

         RHF-SCF
    -14.87127592
 **********************************************************************************************************************************
 Molpro calculation terminated
