
 Primary working directories    : /scr/yuriaoto/job.022430/molpro.0XkRDnUHJc
 Secondary working directories  : /scr/yuriaoto/job.022430/molpro.0XkRDnUHJc
 Wavefunction directory         : /scr/yuriaoto/job.022430/
 Main file repository           : /scr/yuriaoto/job.022430/molpro.0XkRDnUHJc/

 id        : yuriaoto

 Nodes             nprocs
 t-rex.ufabc.int.br    1

 Using customized tuning parameters: mindgm=8; mindgv=16; mindgc=1; mindgr=1; noblas=0; minvec=7
 default implementation of scratch files=df  


 Variables initialized (933), CPU time= 0.01 sec
 ***,
 memory,40,m
 gprint,orbital,basis,civector
 gthresh,thrprint=0,printci=0.0
 file,3,wfu.dat,old
 
 {cisd,CC_NORM_MAX=10.0
 thresh,printci=0.0,ENERGY=1.0E-10,COEFF=1.0E-12
 print,ref=1
 core,0
 wf,10,1,0;
 }
 
 Commands  initialized (760), CPU time= 0.01 sec, 617 directives.
 Default parameters read. Elapsed time= 0.04 sec

 Checking input...
 Passed
1


                                         ***  PROGRAM SYSTEM MOLPRO  ***
                                       Copyright, TTI GmbH Stuttgart, 2015
                                    Version 2019.2 linked Abr  7 2019 15:10:35


 **********************************************************************************************************************************
 LABEL *                                                                                 
  64 bit serial version                                                                  DATE: 21-Oct-19          TIME: 13:26:08  
 **********************************************************************************************************************************

 SHA1:             3a8a58c585c929645742fb5a1b7541a4ad1da699
 **********************************************************************************************************************************


 THRESHOLDS:

 ZERO    =  1.00D-12  ONEINT  =  1.00D-12  TWOINT  =  1.00D-11  PREFAC  =  1.00D-14  XXXXXX  =  1.00D-09  EORDER  =  1.00D-04
 ENERGY  =  0.00D+00  ETEST   =  0.00D+00  EDENS   =  0.00D+00  THRDEDEF=  1.00D-06  GRADIENT=  1.00D-02  STEP    =  1.00D-03
 ORBITAL =  1.00D-05  CIVEC   =  1.00D-05  COEFF   =  1.00D-04  PRINTCI =  0.00D+00  PUNCHCI =  9.90D+01  OPTGRAD =  3.00D-04
 OPTENERG=  1.00D-06  OPTSTEP =  3.00D-04  THRGRAD =  1.00D-10  COMPRESS=  1.00D-11  VARMIN  =  1.00D-07  VARMAX  =  1.00D-03
 THRDOUB =  0.00D+00  THRDIV  =  1.00D-05  THRRED  =  1.00D-07  THRPSP  =  1.00D+00  THRDC   =  1.00D-10  THRCS   =  1.00D-10
 THRNRM  =  1.00D-08  THREQ   =  0.00D+00  THRDE   =  1.00D+00  THRREF  =  1.00D-05  SPARFAC =  1.00D+00  THRDLP  =  1.00D-07
 THRDIA  =  1.00D-10  THRDLS  =  1.00D-07  THRGPS  =  0.00D+00  THRKEX  =  0.00D+00  THRDIS  =  2.00D-01  THRVAR  =  1.00D-10
 THRLOC  =  1.00D-06  THRGAP  =  1.00D-06  THRLOCT = -1.00D+00  THRGAPT = -1.00D+00  THRORB  =  1.00D-06  THRMLTP =  0.00D+00
 THRCPQCI=  1.00D-10  KEXTA   =  0.00D+00  THRCOARS=  0.00D+00  SYMTOL  =  1.00D-06  GRADTOL =  1.00D-06  THROVL  =  1.00D-08
 THRORTH =  1.00D-08  GRID    =  1.00D-06  GRIDMAX =  1.00D-03  DTMAX   =  0.00D+00  THROCCDE=  1.00D-01  THROCCDE=  1.00D-01
 THRPRINT=  0.00D+00


 Variable memory set to   40000000 words,  buffer space 



 Permanent file  3  wfu.dat  assigned.  Implementation=df    Size= 14.09 MB


 PROGRAM * RESTART 


 Reading variables from file 3

 _FNUC           =      0.00000000
 _BASIS          =    6-31G
 _NELEC          =     10.00000000
 _PROGRAM        =    HF-SCF
 _DMZ            =      1.03598798
 _DMX_SCF        =      0.00000000
 _DMY_SCF        =      0.00000000
 _DMZ_SCF        =      1.03598798
 _HOMO           =      1.20000000
 _EHOMO          =     -0.50128600
 _LUMO           =      4.10000000
 _ELUMO          =      0.20310195
 _ENERGY         =    -75.98390244
 _ENERGY_METHOD  =    HF
 _ENERGY_BASIS   =    6-31G
 _ENUC           =      9.16842912
 _EPS1(1:3)      =    -20.56102543    -1.35503251    -0.56043835
 _EPS2           =     -0.50128600
 _EPS3           =     -0.70845397
 _IPROC_MPP      =      0.00000000
 _IPROC_MPPX     =      0.00000000
 _ORBITAL        =   2100.30000000
 _STATUS         =      1.00000000
 _LASTORB        =    RHF
 _OUTPUT         =    /scr/yuriaoto/job.022429/RHF.xml
 _PGROUP         =    C2v 
 _TIME           =    13:25:56
 R               =      0.96000000
 A               =    104.40000000

 Geometry written to block  1 of record 700


 **********************************************************************************************************************************
 DATASETS  * FILE   NREC   LENGTH (MB)   RECORD NAMES
              3       5       14.78       500      610      700     1000     2100   
                                          VAR    BASINP    GEOM     BASIS     RHF  

 PROGRAMS   *        TOTAL   RESTART
 CPU TIMES  *         0.12      0.02
 REAL TIME  *         0.15 SEC
 DISK USED  *        26.85 MB
 **********************************************************************************************************************************


 Recomputing integrals since basis changed


 Using spherical harmonics

 Library entry H      S 6-31G                selected for orbital group  1
 Library entry O      S 6-31G                selected for orbital group  2
 Library entry O      P 6-31G                selected for orbital group  2


 PROGRAM * SEWARD (Integral evaluation for generally contracted gaussian basis sets)     Author: Roland Lindh, 1990

 Geometry written to block  1 of record 700

 Orientation using atomic masses  
 Molecule type: Asymmetric top,     Order of principal axis = 2
 Symmetry elements: X,Y
 Rotational constants:     283.9621697    815.3763831    435.6978814 GHz  (calculated with average atomic masses)

 Point group  C2v 



 ATOMIC COORDINATES

 NR  ATOM    CHARGE       X              Y              Z

   1  H1      1.00    0.000000000   -1.433449507    0.987477933
   2  H2      1.00    0.000000000    1.433449507    0.987477933
   3  O       8.00    0.000000000    0.000000000   -0.124419479

 Bond lengths in Bohr (Angstrom)

 1-3  1.814137080  2-3  1.814137080
     ( 0.960000000)     ( 0.960000000)

 Bond angles

  1-3-2  104.40000000


 BASIS DATA

   Nr Sym  Nuc  Type         Exponents   Contraction coefficients

    1.1 A1    1  1s          18.731137     0.033495
              2  1s           2.825394     0.234727
                              0.640122     0.813757
    2.1 A1    1  1s           0.161278     1.000000
              2  1s    
    3.1 A1    3  1s        5484.671700     0.001831
                            825.234950     0.013950
                            188.046960     0.068445
                             52.964500     0.232714
                             16.897570     0.470193
                              5.799635     0.358521
    4.1 A1    3  1s          15.539616    -0.110778
                              3.599934    -0.148026
                              1.013762     1.130767
    5.1 A1    3  1s           0.270006     1.000000
    6.1 A1    3  2pz         15.539616     0.070874
                              3.599934     0.339753
                              1.013762     0.727159
    7.1 A1    3  2pz          0.270006     1.000000
    1.2 B1    3  2px         15.539616     0.070874
                              3.599934     0.339753
                              1.013762     0.727159
    2.2 B1    3  2px          0.270006     1.000000
    1.3 B2    1  1s          18.731137     0.033495
              2 -1s           2.825394     0.234727
                              0.640122     0.813757
    2.3 B2    1  1s           0.161278     1.000000
              2 -1s    
    3.3 B2    3  2py         15.539616     0.070874
                              3.599934     0.339753
                              1.013762     0.727159
    4.3 B2    3  2py          0.270006     1.000000

 NUCLEAR CHARGE:                   10
 NUMBER OF PRIMITIVE AOS:          30
 NUMBER OF SYMMETRY AOS:           30
 NUMBER OF CONTRACTIONS:           13   (    7A1  +    2B1  +    4B2  +    0A2  )
 NUMBER OF CORE ORBITALS:           1   (    1A1  +    0B1  +    0B2  +    0A2  )
 NUMBER OF VALENCE ORBITALS:        6   (    3A1  +    1B1  +    2B2  +    0A2  )


 NUCLEAR REPULSION ENERGY    9.16842912

 Eigenvalues of metric

         1 0.681E-01 0.322E+00 0.424E+00 0.681E+00 0.101E+01 0.163E+01 0.344E+01
         2 0.498E+00 0.150E+01
         3 0.120E+00 0.328E+00 0.742E+00 0.224E+01


 Contracted 2-electron integrals neglected if value below      1.0D-11
 AO integral compression algorithm  1   Integral accuracy      1.0D-11

     0.262 MB (compressed) written to integral file (100.0%)


 NUMBER OF SORTED TWO-ELECTRON INTEGRALS:       1649.     BUFFER LENGTH:  32768
 NUMBER OF SEGMENTS:   1  SEGMENT LENGTH:       1649      RECORD LENGTH: 524288

 Memory used in sort:       0.56 MW

 SORT1 READ        2701. AND WROTE        1487. INTEGRALS IN      1 RECORDS. CPU TIME:     0.00 SEC, REAL TIME:     0.00 SEC
 SORT2 READ        1487. AND WROTE        1649. INTEGRALS IN      1 RECORDS. CPU TIME:     0.00 SEC, REAL TIME:     0.01 SEC

 FILE SIZES:   FILE 1:    30.2 MBYTE,  FILE 4:     4.2 MBYTE,   TOTAL:     34.4 MBYTE

 OPERATOR DM      FOR CENTER  0  COORDINATES:    0.000000    0.000000    0.000000


 **********************************************************************************************************************************
 DATASETS  * FILE   NREC   LENGTH (MB)   RECORD NAMES
              1      19       29.97       500      700      610      900      950      970     1000      129      960     1100   
                                          VAR     GEOM    BASINP   SYMINP    ZMAT    AOBASIS   BASIS     P2S    ABASIS      S 
                                         1400     1410     1200     1210     1080     1600     1650     1300     1700   
                                           T        V       H0       H01     AOSYM     SMH    MOLCAS    ERIS     OPER   

              3       5       14.78       500      610      700     1000     2100   
                                          VAR    BASINP    GEOM     BASIS     RHF  

 PROGRAMS   *        TOTAL       INT   RESTART
 CPU TIMES  *         0.26      0.14      0.02
 REAL TIME  *         0.42 SEC
 DISK USED  *        49.46 MB
 **********************************************************************************************************************************


 PROGRAM * CISD (Closed-shell CI(SD))     Authors: C. Hampel, H.-J. Werner, 1991, M. Deegan, P.J. Knowles, 1992


 Input parameters for THRESH:

 ENERGY   =    1.00D-10
 COEFF    =    1.00D-12
 PRINTCI  =    0.000000
 THRPRINT =    0.000000

 Convergence thresholds:  THRVAR = 1.00D-24  THRDEN = 1.00D-10

 Number of closed-shell orbitals:   5 (   3   1   1 )
 Number of external orbitals:       8 (   4   1   3 )

 Molecular orbitals read from record     2100.3  Type=RHF/CANONICAL (state 1.1)

 Number of N-1 electron functions:               5
 Number of N-2 electron functions:              15
 Number of singly external CSFs:                16
 Number of doubly external CSFs:               265
 Total number of CSFs:                         282

 Length of J-op  integral file:               0.00 MB
 Length of K-op  integral file:               0.04 MB

 Integral transformation finished. Total CPU:   0.00 sec, npass=  1  Memory used:   0.07 MW

 Reference energy:                    -75.98390244

 MP2 singlet pair energy:              -0.08376114
 MP2 triplet pair energy:              -0.04529895
 MP2 correlation energy:               -0.12906009
 MP2 total energy:                    -76.11296253

 SCS-MP2 correlation energy:           -0.12869938   (PS=  1.200000  PT=  0.333333)
 SCS-MP2 total energy:                -76.11260183

 ITER.      SQ.NORM     CORR.ENERGY   TOTAL ENERGY   ENERGY CHANGE        DEN1      VAR(S)    VAR(P)  DIIS     TIME  TIME/IT
   1      1.03710649    -0.12922199   -76.11312444    -0.00016190     0.00314597  0.33D-03  0.80D-03  1  1     0.02     0.01
   2      1.04001563    -0.13003664   -76.11393908    -0.00081465    -0.00347444  0.67D-05  0.83D-04  2  2     0.02     0.00
   3      1.04099761    -0.13025278   -76.11415522    -0.00021614    -0.00081847  0.15D-05  0.25D-05  3  3     0.03     0.00
   4      1.04111677    -0.13030399   -76.11420644    -0.00005121    -0.00007889  0.54D-07  0.18D-06  4  4     0.03     0.00
   5      1.04114692    -0.13030549   -76.11420794    -0.00000150    -0.00001823  0.15D-07  0.62D-08  5  5     0.03     0.00
   6      1.04115075    -0.13030561   -76.11420806    -0.00000012    -0.00000167  0.67D-09  0.32D-09  6  6     0.03     0.00
   7      1.04115125    -0.13030562   -76.11420807    -0.00000001     0.00000006  0.10D-09  0.30D-10  6  1     0.04     0.00
   8      1.04115138    -0.13030562   -76.11420807    -0.00000000     0.00000013  0.23D-11  0.21D-11  6  4     0.04     0.00
   9      1.04115142    -0.13030562   -76.11420807    -0.00000000     0.00000001  0.27D-12  0.98D-13  6  2     0.04     0.00
  10      1.04115144    -0.13030562   -76.11420807    -0.00000000    -0.00000001  0.18D-14  0.61D-14  6  3     0.05     0.00
  11      1.04115145    -0.13030562   -76.11420807    -0.00000000    -0.00000000  0.82D-16  0.30D-15  6  5     0.05     0.00
  12      1.04115145    -0.13030562   -76.11420807     0.00000000    -0.00000000  0.37D-17  0.33D-16  6  6     0.05     0.00
  13      1.04115145    -0.13030562   -76.11420807     0.00000000    -0.00000000  0.87D-18  0.51D-18  6  1     0.05     0.00
  14      1.04115145    -0.13030562   -76.11420807     0.00000000    -0.00000000  0.46D-19  0.26D-19  6  4     0.06     0.00
  15      1.04115145    -0.13030562   -76.11420807     0.00000000    -0.00000000  0.67D-20  0.20D-20  6  2     0.06     0.00
  16      1.04115145    -0.13030562   -76.11420807     0.00000000    -0.00000000  0.20D-21  0.12D-21  6  3     0.06     0.00
  17      1.04115145    -0.13030562   -76.11420807     0.00000000     0.00000000  0.32D-22  0.83D-23  6  5     0.06     0.00
  18      1.04115145    -0.13030562   -76.11420807     0.00000000     0.00000000  0.91D-24  0.70D-24  6  6     0.07     0.00
  19      1.04115145    -0.13030562   -76.11420807     0.00000000    -0.00000000  0.40D-25  0.37D-25  6  1     0.07     0.00


 ! DIPOLE MOMENTS:                      0.00000000     0.00000000     0.99886720



 Norm of t1 vector:      0.02293675      S-energy:    -0.00006584      T1 diagnostic:  0.00512881

 Singles amplitudes (print threshold =  0.000E+00):

         I         SYM. A    A   T(IA)

         1         1         1     -0.00005613
         1         1         2     -0.00002789
         1         1         3      0.00010493
         1         1         4     -0.00013938
         2         1         1      0.00321089
         2         1         2     -0.00149090
         2         1         3     -0.00424468
         2         1         4     -0.00099079
         3         1         1      0.00831956
         3         1         2      0.00041715
         3         1         3     -0.00030341
         3         1         4     -0.00508888
         4         2         1      0.00534855
         5         3         1     -0.00626060
         5         3         2     -0.00264426
         5         3         3     -0.00783002

 Doubles amplitudes (print threshold =  0.000E+00):

         I         J         SYM. A    SYM. B    A         B      T(IJ, AB)

         1         1         1         1         1         1     -0.00023488
         1         1         1         1         1         2     -0.00034761
         1         1         1         1         1         3     -0.00002417
         1         1         1         1         1         4     -0.00044706
         1         1         1         1         2         1     -0.00034761
         1         1         1         1         2         2     -0.00063910
         1         1         1         1         2         3     -0.00038432
         1         1         1         1         2         4     -0.00045681
         1         1         1         1         3         1     -0.00002417
         1         1         1         1         3         2     -0.00038432
         1         1         1         1         3         3     -0.00074486
         1         1         1         1         3         4      0.00032730
         1         1         1         1         4         1     -0.00044706
         1         1         1         1         4         2     -0.00045681
         1         1         1         1         4         3      0.00032730
         1         1         1         1         4         4     -0.00093457
         1         1         2         2         1         1     -0.00100666
         1         1         3         3         1         1     -0.00016256
         1         1         3         3         1         2     -0.00004894
         1         1         3         3         1         3      0.00046448
         1         1         3         3         2         1     -0.00004894
         1         1         3         3         2         2      0.00000671
         1         1         3         3         2         3      0.00016206
         1         1         3         3         3         1      0.00046448
         1         1         3         3         3         2      0.00016206
         1         1         3         3         3         3     -0.00113630
         2         1         1         1         1         1     -0.00009587
         2         1         1         1         1         2     -0.00035558
         2         1         1         1         1         3     -0.00045622
         2         1         1         1         1         4      0.00001738
         2         1         1         1         2         1     -0.00017845
         2         1         1         1         2         2     -0.00051704
         2         1         1         1         2         3     -0.00063462
         2         1         1         1         2         4     -0.00000510
         2         1         1         1         3         1     -0.00023827
         2         1         1         1         3         2     -0.00047327
         2         1         1         1         3         3     -0.00034209
         2         1         1         1         3         4     -0.00020617
         2         1         1         1         4         1      0.00004959
         2         1         1         1         4         2     -0.00009832
         2         1         1         1         4         3     -0.00034948
         2         1         1         1         4         4      0.00027977
         2         1         2         2         1         1     -0.00093822
         2         1         3         3         1         1     -0.00029287
         2         1         3         3         1         2     -0.00009214
         2         1         3         3         1         3      0.00070596
         2         1         3         3         2         1     -0.00006120
         2         1         3         3         2         2      0.00000223
         2         1         3         3         2         3      0.00017994
         2         1         3         3         3         1      0.00043867
         2         1         3         3         3         2      0.00014907
         2         1         3         3         3         3     -0.00097980
         2         2         1         1         1         1     -0.01551949
         2         2         1         1         1         2     -0.01205523
         2         2         1         1         1         3      0.00090715
         2         2         1         1         1         4     -0.00976993
         2         2         1         1         2         1     -0.01205523
         2         2         1         1         2         2     -0.01488264
         2         2         1         1         2         3      0.00062534
         2         2         1         1         2         4     -0.00646459
         2         2         1         1         3         1      0.00090715
         2         2         1         1         3         2      0.00062534
         2         2         1         1         3         3     -0.00598666
         2         2         1         1         3         4      0.00159306
         2         2         1         1         4         1     -0.00976993
         2         2         1         1         4         2     -0.00646459
         2         2         1         1         4         3      0.00159306
         2         2         1         1         4         4     -0.01229846
         2         2         2         2         1         1     -0.00865391
         2         2         3         3         1         1     -0.00776811
         2         2         3         3         1         2     -0.00327868
         2         2         3         3         1         3      0.00701326
         2         2         3         3         2         1     -0.00327868
         2         2         3         3         2         2     -0.00717651
         2         2         3         3         2         3      0.00309309
         2         2         3         3         3         1      0.00701326
         2         2         3         3         3         2      0.00309309
         2         2         3         3         3         3     -0.00898258
         3         1         1         1         1         1     -0.00009742
         3         1         1         1         1         2     -0.00014642
         3         1         1         1         1         3     -0.00009257
         3         1         1         1         1         4     -0.00005427
         3         1         1         1         2         1      0.00006241
         3         1         1         1         2         2      0.00008527
         3         1         1         1         2         3      0.00000757
         3         1         1         1         2         4      0.00014610
         3         1         1         1         3         1      0.00030080
         3         1         1         1         3         2      0.00052819
         3         1         1         1         3         3      0.00029461
         3         1         1         1         3         4      0.00032390
         3         1         1         1         4         1     -0.00025296
         3         1         1         1         4         2     -0.00050702
         3         1         1         1         4         3     -0.00043082
         3         1         1         1         4         4     -0.00016220
         3         1         2         2         1         1      0.00036172
         3         1         3         3         1         1      0.00015410
         3         1         3         3         1         2      0.00005254
         3         1         3         3         1         3     -0.00036144
         3         1         3         3         2         1      0.00019146
         3         1         3         3         2         2      0.00005365
         3         1         3         3         2         3     -0.00041221
         3         1         3         3         3         1     -0.00016175
         3         1         3         3         3         2     -0.00006088
         3         1         3         3         3         3      0.00037195
         3         2         1         1         1         1     -0.01476359
         3         2         1         1         1         2     -0.01162855
         3         2         1         1         1         3     -0.00081834
         3         2         1         1         1         4     -0.00619208
         3         2         1         1         2         1     -0.01360511
         3         2         1         1         2         2     -0.01315148
         3         2         1         1         2         3      0.00621032
         3         2         1         1         2         4     -0.00956197
         3         2         1         1         3         1     -0.00850834
         3         2         1         1         3         2      0.00044256
         3         2         1         1         3         3      0.00804784
         3         2         1         1         3         4     -0.01326907
         3         2         1         1         4         1     -0.00183472
         3         2         1         1         4         2     -0.00401631
         3         2         1         1         4         3     -0.00664605
         3         2         1         1         4         4     -0.00026630
         3         2         2         2         1         1      0.00302654
         3         2         3         3         1         1      0.00238002
         3         2         3         3         1         2     -0.00085576
         3         2         3         3         1         3     -0.00049869
         3         2         3         3         2         1      0.00284707
         3         2         3         3         2         2     -0.00498475
         3         2         3         3         2         3      0.00114979
         3         2         3         3         3         1     -0.00163262
         3         2         3         3         3         2      0.00198981
         3         2         3         3         3         3      0.00236249
         3         3         1         1         1         1     -0.02020050
         3         3         1         1         1         2     -0.01437220
         3         3         1         1         1         3     -0.00715637
         3         3         1         1         1         4     -0.00218359
         3         3         1         1         2         1     -0.01437220
         3         3         1         1         2         2     -0.02179012
         3         3         1         1         2         3     -0.01744440
         3         3         1         1         2         4      0.00303562
         3         3         1         1         3         1     -0.00715637
         3         3         1         1         3         2     -0.01744440
         3         3         1         1         3         3     -0.03285702
         3         3         1         1         3         4      0.00744086
         3         3         1         1         4         1     -0.00218359
         3         3         1         1         4         2      0.00303562
         3         3         1         1         4         3      0.00744086
         3         3         1         1         4         4     -0.00653531
         3         3         2         2         1         1     -0.00576984
         3         3         3         3         1         1     -0.01668925
         3         3         3         3         1         2     -0.01316733
         3         3         3         3         1         3      0.00560720
         3         3         3         3         2         1     -0.01316733
         3         3         3         3         2         2     -0.01621085
         3         3         3         3         2         3      0.00406894
         3         3         3         3         3         1      0.00560720
         3         3         3         3         3         2      0.00406894
         3         3         3         3         3         3     -0.00513495
         4         4         1         1         1         1     -0.01200924
         4         4         1         1         1         2     -0.00653819
         4         4         1         1         1         3      0.00333357
         4         4         1         1         1         4     -0.00587164
         4         4         1         1         2         1     -0.00653819
         4         4         1         1         2         2     -0.00665332
         4         4         1         1         2         3      0.00097860
         4         4         1         1         2         4      0.00020357
         4         4         1         1         3         1      0.00333357
         4         4         1         1         3         2      0.00097860
         4         4         1         1         3         3     -0.00679548
         4         4         1         1         3         4      0.00228132
         4         4         1         1         4         1     -0.00587164
         4         4         1         1         4         2      0.00020357
         4         4         1         1         4         3      0.00228132
         4         4         1         1         4         4     -0.01254515
         4         4         2         2         1         1     -0.05110297
         4         4         3         3         1         1     -0.00458470
         4         4         3         3         1         2     -0.00173532
         4         4         3         3         1         3      0.00344007
         4         4         3         3         2         1     -0.00173532
         4         4         3         3         2         2     -0.00124530
         4         4         3         3         2         3     -0.00003357
         4         4         3         3         3         1      0.00344007
         4         4         3         3         3         2     -0.00003357
         4         4         3         3         3         3     -0.00465816
         5         5         1         1         1         1     -0.01958850
         5         5         1         1         1         2     -0.01413379
         5         5         1         1         1         3      0.00571589
         5         5         1         1         1         4     -0.00332265
         5         5         1         1         2         1     -0.01413379
         5         5         1         1         2         2     -0.02273903
         5         5         1         1         2         3      0.00881189
         5         5         1         1         2         4      0.00059108
         5         5         1         1         3         1      0.00571589
         5         5         1         1         3         2      0.00881189
         5         5         1         1         3         3     -0.00662447
         5         5         1         1         3         4      0.00113206
         5         5         1         1         4         1     -0.00332265
         5         5         1         1         4         2      0.00059108
         5         5         1         1         4         3      0.00113206
         5         5         1         1         4         4     -0.00515958
         5         5         2         2         1         1     -0.00313334
         5         5         3         3         1         1     -0.03997128
         5         5         3         3         1         2     -0.01711065
         5         5         3         3         1         3      0.02481391
         5         5         3         3         2         1     -0.01711065
         5         5         3         3         2         2     -0.02697679
         5         5         3         3         2         3      0.01009027
         5         5         3         3         3         1      0.02481391
         5         5         3         3         3         2      0.01009027
         5         5         3         3         3         3     -0.02679141
         4         1         1         2         1         1     -0.00045966
         4         1         1         2         2         1     -0.00046791
         4         1         1         2         3         1      0.00055866
         4         1         1         2         4         1     -0.00064338
         4         1         2         1         1         1      0.00010683
         4         1         2         1         1         2      0.00007586
         4         1         2         1         1         3     -0.00013424
         4         1         2         1         1         4      0.00026509
         4         2         1         2         1         1     -0.00931555
         4         2         1         2         2         1     -0.00498505
         4         2         1         2         3         1      0.00511173
         4         2         1         2         4         1     -0.01003716
         4         2         2         1         1         1     -0.01852123
         4         2         2         1         1         2     -0.01011506
         4         2         2         1         1         3      0.00742918
         4         2         2         1         1         4     -0.01977685
         4         3         1         2         1         1     -0.00054850
         4         3         1         2         2         1     -0.00400805
         4         3         1         2         3         1     -0.00919558
         4         3         1         2         4         1      0.00265135
         4         3         2         1         1         1     -0.01126960
         4         3         2         1         1         2     -0.01899717
         4         3         2         1         1         3     -0.02675584
         4         3         2         1         1         4      0.00476421
         5         1         1         3         1         1      0.00014200
         5         1         1         3         1         2      0.00005558
         5         1         1         3         1         3     -0.00027951
         5         1         1         3         2         1      0.00002171
         5         1         1         3         2         2      0.00001879
         5         1         1         3         2         3     -0.00002937
         5         1         1         3         3         1     -0.00011523
         5         1         1         3         3         2     -0.00005725
         5         1         1         3         3         3      0.00023056
         5         1         1         3         4         1      0.00038241
         5         1         1         3         4         2      0.00013997
         5         1         1         3         4         3     -0.00077329
         5         1         3         1         1         1     -0.00003104
         5         1         3         1         1         2     -0.00006977
         5         1         3         1         1         3     -0.00005764
         5         1         3         1         1         4     -0.00002944
         5         1         3         1         2         1     -0.00011516
         5         1         3         1         2         2     -0.00023505
         5         1         3         1         2         3     -0.00022696
         5         1         3         1         2         4     -0.00006568
         5         1         3         1         3         1      0.00010584
         5         1         3         1         3         2      0.00007727
         5         1         3         1         3         3     -0.00013267
         5         1         3         1         3         4      0.00024618
         5         2         1         3         1         1      0.00980526
         5         2         1         3         1         2      0.00559644
         5         2         1         3         1         3     -0.00951784
         5         2         1         3         2         1      0.00573447
         5         2         1         3         2         2      0.01213703
         5         2         1         3         2         3     -0.00698254
         5         2         1         3         3         1     -0.00299285
         5         2         1         3         3         2     -0.00515172
         5         2         1         3         3         3      0.00516119
         5         2         1         3         4         1      0.00555932
         5         2         1         3         4         2     -0.00006436
         5         2         1         3         4         3     -0.00697729
         5         2         3         1         1         1      0.01642715
         5         2         3         1         1         2      0.01062814
         5         2         3         1         1         3     -0.00538146
         5         2         3         1         1         4      0.01118145
         5         2         3         1         2         1      0.00230719
         5         2         3         1         2         2      0.01003404
         5         2         3         1         2         3     -0.00513786
         5         2         3         1         2         4      0.00129502
         5         2         3         1         3         1     -0.01483481
         5         2         3         1         3         2     -0.01120452
         5         2         3         1         3         3      0.00750285
         5         2         3         1         3         4     -0.01390454
         5         3         1         3         1         1      0.01342135
         5         3         1         3         1         2      0.01002862
         5         3         1         3         1         3     -0.00331302
         5         3         1         3         2         1      0.01335137
         5         3         1         3         2         2      0.01666001
         5         3         1         3         2         3     -0.00773223
         5         3         1         3         3         1      0.00065815
         5         3         1         3         3         2     -0.00549883
         5         3         1         3         3         3     -0.00360653
         5         3         1         3         4         1     -0.00211231
         5         3         1         3         4         2     -0.00208631
         5         3         1         3         4         3      0.00317098
         5         3         3         1         1         1      0.02061529
         5         3         3         1         1         2      0.01847661
         5         3         3         1         1         3      0.01525868
         5         3         3         1         1         4     -0.00170032
         5         3         3         1         2         1      0.00964795
         5         3         3         1         2         2      0.01404228
         5         3         3         1         2         3     -0.00092090
         5         3         3         1         2         4      0.00036579
         5         3         3         1         3         1     -0.01004927
         5         3         3         1         3         2     -0.01698273
         5         3         3         1         3         3     -0.01671581
         5         3         3         1         3         4      0.00404541
         5         4         2         3         1         1      0.00619569
         5         4         2         3         1         2      0.00110220
         5         4         2         3         1         3     -0.00736026
         5         4         3         2         1         1      0.02354856
         5         4         3         2         2         1      0.00341903
         5         4         3         2         3         1     -0.02542401


 RESULTS
 =======

  Reference energy                    -75.983902444804

  Correlated core orbitals:             1.1
  Orbital energies:                   -20.5610

  CISD core-core energy                -0.000282839116
  CISD core-valence energy             -0.000667542179
  CISD valence correlation energy      -0.129355241288

  CISD singlet pair energy             -0.096097527812
  CISD triplet pair energy             -0.034142250983
  CISD correlation energy              -0.130305622583

 !CISD total energy                   -76.114208067387

 Timing summary (sec):

 STEP                 CPU(USER)    SYS     CPU(TOT)    WALL
 CCSD iterations         0.07      0.00      0.07      0.09

 Program statistics:

 Available memory in ccsd:                39999100
 Min. memory needed in ccsd:                  2470
 Max. memory used in ccsd:                    2517
 Max. memory used in cckext:                 35598 (19 integral passes)



 **********************************************************************************************************************************
 DATASETS  * FILE   NREC   LENGTH (MB)   RECORD NAMES
              1      20       29.98       500      700      610      900      950      970     1000      129      960     1100   
                                          VAR     GEOM    BASINP   SYMINP    ZMAT    AOBASIS   BASIS     P2S    ABASIS      S 
                                         1400     1410     1200     1210     1080     1600     1650     1300     1700     1380   
                                           T        V       H0       H01     AOSYM     SMH    MOLCAS    ERIS     OPER     JKOP   

              3       5       14.78       500      610      700     1000     2100   
                                          VAR    BASINP    GEOM     BASIS     RHF  

 PROGRAMS   *        TOTAL      CISD       INT   RESTART
 CPU TIMES  *         0.40      0.14      0.14      0.02
 REAL TIME  *         0.59 SEC
 DISK USED  *        49.46 MB
 **********************************************************************************************************************************
 Molecular orbitals read from record     2100.3  Type=RHF/CANONICAL (state 1.1)
 Occupation numbers read from record     2100.3  Type=RHF/RHF (state 1.1)
 Orbital energies read from record       2100.3  Type=RHF/CANONICAL (state 1.1)
 Redundancy group numbers read from rec  2100.3  Type=RHF/RHF (state 1.1)

 CISD/6-31G energy=    -76.114208067387

            CISD
    -76.11420807
 **********************************************************************************************************************************
 Molpro calculation terminated
