
 Primary working directories    : /scr/yuriaoto/job.023670/molpro.zLk3CrmyML
 Secondary working directories  : /scr/yuriaoto/job.023670/molpro.zLk3CrmyML
 Wavefunction directory         : /scr/yuriaoto/job.023670/
 Main file repository           : /scr/yuriaoto/job.023670/molpro.zLk3CrmyML/

 id        : yuriaoto

 Nodes             nprocs
 t-rex.ufabc.int.br    1

 Using customized tuning parameters: mindgm=8; mindgv=16; mindgc=1; mindgr=1; noblas=0; minvec=7
 default implementation of scratch files=df  


 Variables initialized (933), CPU time= 0.00 sec
 ***,
 memory,40,m
 gprint,orbital,basis,civector
 gthresh,thrprint=0,printci=0.0
 file,3,wfu.dat,old
 
 {ccsd,CC_NORM_MAX=10.0
 nosingle
 thresh,printci=0.0,ENERGY=1.0E-10,COEFF=1.0E-12
 print,ref=1
 wf,6,1,0;
 }
 
 Commands  initialized (760), CPU time= 0.01 sec, 617 directives.
 Default parameters read. Elapsed time= 0.04 sec

 Checking input...
 Passed
1


                                         ***  PROGRAM SYSTEM MOLPRO  ***
                                       Copyright, TTI GmbH Stuttgart, 2015
                                    Version 2019.2 linked Abr  7 2019 15:10:35


 **********************************************************************************************************************************
 LABEL *                                                                                 
  64 bit serial version                                                                  DATE: 05-Jun-20          TIME: 23:27:48  
 **********************************************************************************************************************************

 SHA1:             3a8a58c585c929645742fb5a1b7541a4ad1da699
 **********************************************************************************************************************************


 THRESHOLDS:

 ZERO    =  1.00D-12  ONEINT  =  1.00D-12  TWOINT  =  1.00D-11  PREFAC  =  1.00D-14  XXXXXX  =  1.00D-09  EORDER  =  1.00D-04
 ENERGY  =  0.00D+00  ETEST   =  0.00D+00  EDENS   =  0.00D+00  THRDEDEF=  1.00D-06  GRADIENT=  1.00D-02  STEP    =  1.00D-03
 ORBITAL =  1.00D-05  CIVEC   =  1.00D-05  COEFF   =  1.00D-04  PRINTCI =  0.00D+00  PUNCHCI =  9.90D+01  OPTGRAD =  3.00D-04
 OPTENERG=  1.00D-06  OPTSTEP =  3.00D-04  THRGRAD =  1.00D-10  COMPRESS=  1.00D-11  VARMIN  =  1.00D-07  VARMAX  =  1.00D-03
 THRDOUB =  0.00D+00  THRDIV  =  1.00D-05  THRRED  =  1.00D-07  THRPSP  =  1.00D+00  THRDC   =  1.00D-10  THRCS   =  1.00D-10
 THRNRM  =  1.00D-08  THREQ   =  0.00D+00  THRDE   =  1.00D+00  THRREF  =  1.00D-05  SPARFAC =  1.00D+00  THRDLP  =  1.00D-07
 THRDIA  =  1.00D-10  THRDLS  =  1.00D-07  THRGPS  =  0.00D+00  THRKEX  =  0.00D+00  THRDIS  =  2.00D-01  THRVAR  =  1.00D-10
 THRLOC  =  1.00D-06  THRGAP  =  1.00D-06  THRLOCT = -1.00D+00  THRGAPT = -1.00D+00  THRORB  =  1.00D-06  THRMLTP =  0.00D+00
 THRCPQCI=  1.00D-10  KEXTA   =  0.00D+00  THRCOARS=  0.00D+00  SYMTOL  =  1.00D-06  GRADTOL =  1.00D-06  THROVL  =  1.00D-08
 THRORTH =  1.00D-08  GRID    =  1.00D-06  GRIDMAX =  1.00D-03  DTMAX   =  0.00D+00  THROCCDE=  1.00D-01  THROCCDE=  1.00D-01
 THRPRINT=  0.00D+00


 Variable memory set to   40000000 words,  buffer space 



 Permanent file  3  wfu.dat  assigned.  Implementation=df    Size= 14.09 MB


 PROGRAM * RESTART 


 Reading variables from file 3

 _FNUC           =      0.00000000
 _BASIS          =    CC-PVDZ
 _NELEC          =      6.00000000
 _PROGRAM        =    RHF-SCF
 _DMX            =      0.00000000
 _DMY            =     -0.00000000
 _DMX_SCF        =      0.00000000
 _DMY_SCF        =     -0.00000000
 _DMZ_SCF        =      0.00000000
 _HOMO           =      2.10000000
 _EHOMO          =     -0.18089003
 _LUMO           =      2.20000000
 _ELUMO          =      0.00860175
 _ENERGY         =    -14.86923112
 _ENERGY_METHOD  =    RHF
 _ENERGY_BASIS   =    cc-pVDZ
 _ENUC           =      1.80000000
 _EPS1(1:14)     =     -2.44754692    -0.18089003     0.03216991     0.03216991     0.04506451     0.14188695
                        0.16180289     0.16180289     0.17633377     0.31871808     0.31871808     0.35571558
                        0.35571558     0.45987531
 _EPS2(1:14)     =     -2.44716908     0.00860175     0.06717723     0.06717723     0.08426831     0.21640604
                        0.21640604     0.25807888     0.31859242     0.39752665     0.39752665     0.51855068
                        0.51855068     0.94057166
 _IPROC_MPP      =      0.00000000
 _IPROC_MPPX     =      0.00000000
 _ORBITAL        =   2100.30000000
 _STATUS         =      1.00000000
 _DATE           =    21-Oct-19
 _LASTORB        =    RHF
 _OUTPUT         =    /scr/yuriaoto/job.022417/RHF.xml
 _PGROUP         =    Cs  
 _TIME           =    10:51:54
 R               =      5.00000000

 Geometry written to block  1 of record 700


 **********************************************************************************************************************************
 DATASETS  * FILE   NREC   LENGTH (MB)   RECORD NAMES
              3       5       14.78       500      610      700     1000     2100   
                                          VAR    BASINP    GEOM     BASIS     RHF  

 PROGRAMS   *        TOTAL   RESTART
 CPU TIMES  *         0.12      0.02
 REAL TIME  *         0.14 SEC
 DISK USED  *        26.85 MB
 **********************************************************************************************************************************


 Recomputing integrals since basis changed


 Using spherical harmonics

 Library entry LI     S cc-pVDZ              selected for orbital group  1
 Library entry LI     P cc-pVDZ              selected for orbital group  1
 Library entry LI     D cc-pVDZ              selected for orbital group  1


 PROGRAM * SEWARD (Integral evaluation for generally contracted gaussian basis sets)     Author: Roland Lindh, 1990

 Geometry written to block  1 of record 700

 Orientation using atomic masses  
 Molecule type: Linear
 User-specified symmetry elements: Z
 Symmetry elements: Z
 Rotational constants:      20.8009354     20.8009354      0.0000000 GHz  (calculated with average atomic masses)

 Point group  Cs  



 ATOMIC COORDINATES

 NR  ATOM    CHARGE       X              Y              Z

   1  LI1     3.00    0.000000000    0.000000000   -2.500000000
   2  LI2     3.00    0.000000000    0.000000000    2.500000000

 Bond lengths in Bohr (Angstrom)

 1-2  5.000000000
     ( 2.645886055)


 BASIS DATA

   Nr Sym  Nuc  Type         Exponents   Contraction coefficients

    1.1 A'    1  1s        1469.000000     0.000766   -0.000120    0.000000
    2.1 A'    2  1s         220.500000     0.005892   -0.000923    0.000000
    3.1 A'                   50.260000     0.029671   -0.004689    0.000000
                             14.240000     0.109180   -0.017682    0.000000
                              4.581000     0.282789   -0.048902    0.000000
                              1.580000     0.453123   -0.096009    0.000000
                              0.564000     0.274774   -0.136380    0.000000
                              0.073450     0.009751    0.575102    0.000000
                              0.028050    -0.003180    0.517661    1.000000
    4.1 A'    1  2px          1.534000     0.022784
              2  2px          0.274900     0.139107
                              0.073620     0.500375
                              0.024030     0.508474
    5.1 A'    1  2py          1.534000     0.022784
              2  2py          0.274900     0.139107
                              0.073620     0.500375
                              0.024030     0.508474
    6.1 A'    1  2pz          1.534000     0.022784
              2 -2pz          0.274900     0.139107
                              0.073620     0.500375
                              0.024030     0.508474
    7.1 A'    1  2px          1.534000     0.000000
              2  2px          0.274900     0.000000
                              0.073620     0.000000
                              0.024030     1.000000
    8.1 A'    1  2py          1.534000     0.000000
              2  2py          0.274900     0.000000
                              0.073620     0.000000
                              0.024030     1.000000
    9.1 A'    1  2pz          1.534000     0.000000
              2 -2pz          0.274900     0.000000
                              0.073620     0.000000
                              0.024030     1.000000
   10.1 A'    1  3d0          0.114400     1.000000
              2  3d0   
   11.1 A'    1  3d2-         0.114400     1.000000
              2  3d2-  
   12.1 A'    1  3d2+         0.114400     1.000000
              2  3d2+  
   13.1 A'    1  3d1+         0.114400     1.000000
              2 -3d1+  
   14.1 A'    1  3d1-         0.114400     1.000000
              2 -3d1-  
    1.2 A"    1  1s        1469.000000     0.000766   -0.000120    0.000000
    2.2 A"    2 -1s         220.500000     0.005892   -0.000923    0.000000
    3.2 A"                   50.260000     0.029671   -0.004689    0.000000
                             14.240000     0.109180   -0.017682    0.000000
                              4.581000     0.282789   -0.048902    0.000000
                              1.580000     0.453123   -0.096009    0.000000
                              0.564000     0.274774   -0.136380    0.000000
                              0.073450     0.009751    0.575102    0.000000
                              0.028050    -0.003180    0.517661    1.000000
    4.2 A"    1  2pz          1.534000     0.022784
              2  2pz          0.274900     0.139107
                              0.073620     0.500375
                              0.024030     0.508474
    5.2 A"    1  2px          1.534000     0.022784
              2 -2px          0.274900     0.139107
                              0.073620     0.500375
                              0.024030     0.508474
    6.2 A"    1  2py          1.534000     0.022784
              2 -2py          0.274900     0.139107
                              0.073620     0.500375
                              0.024030     0.508474
    7.2 A"    1  2pz          1.534000     0.000000
              2  2pz          0.274900     0.000000
                              0.073620     0.000000
                              0.024030     1.000000
    8.2 A"    1  2px          1.534000     0.000000
              2 -2px          0.274900     0.000000
                              0.073620     0.000000
                              0.024030     1.000000
    9.2 A"    1  2py          1.534000     0.000000
              2 -2py          0.274900     0.000000
                              0.073620     0.000000
                              0.024030     1.000000
   10.2 A"    1  3d1+         0.114400     1.000000
              2  3d1+  
   11.2 A"    1  3d1-         0.114400     1.000000
              2  3d1-  
   12.2 A"    1  3d0          0.114400     1.000000
              2 -3d0   
   13.2 A"    1  3d2-         0.114400     1.000000
              2 -3d2-  
   14.2 A"    1  3d2+         0.114400     1.000000
              2 -3d2+  

 NUCLEAR CHARGE:                    6
 NUMBER OF PRIMITIVE AOS:          54
 NUMBER OF SYMMETRY AOS:           52
 NUMBER OF CONTRACTIONS:           28   (   14A'  +   14A"  )
 NUMBER OF CORE ORBITALS:           2   (    1A'  +    1A"  )
 NUMBER OF VALENCE ORBITALS:        8   (    4A'  +    4A"  )


 NUCLEAR REPULSION ENERGY    1.80000000

 EXTRA SYMMETRY OF AOS IN SYMMETRY 1:   1 1 1 2 3 1 2 3 1 1   4 5 2 3
 EXTRA SYMMETRY OF AOS IN SYMMETRY 2:   1 1 1 1 2 3 1 2 3 2   3 1 4 5

 Eigenvalues of metric

         1 0.313E-01 0.101E+00 0.135E+00 0.135E+00 0.792E+00 0.106E+01 0.116E+01 0.124E+01
         2 0.256E-02 0.901E-02 0.586E-01 0.586E-01 0.995E-01 0.230E+00 0.230E+00 0.761E+00


 Contracted 2-electron integrals neglected if value below      1.0D-11
 AO integral compression algorithm  1   Integral accuracy      1.0D-11

     0.262 MB (compressed) written to integral file ( 35.0%)


 NUMBER OF SORTED TWO-ELECTRON INTEGRALS:      44205.     BUFFER LENGTH:  32768
 NUMBER OF SEGMENTS:   1  SEGMENT LENGTH:      44205      RECORD LENGTH: 524288

 Memory used in sort:       0.60 MW

 SORT1 READ      102344. AND WROTE       11237. INTEGRALS IN      1 RECORDS. CPU TIME:     0.00 SEC, REAL TIME:     0.01 SEC
 SORT2 READ       11237. AND WROTE       44205. INTEGRALS IN      1 RECORDS. CPU TIME:     0.02 SEC, REAL TIME:     0.03 SEC

 FILE SIZES:   FILE 1:    30.2 MBYTE,  FILE 4:     4.2 MBYTE,   TOTAL:     34.5 MBYTE

 OPERATOR DM      FOR CENTER  0  COORDINATES:    0.000000    0.000000    0.000000


 **********************************************************************************************************************************
 DATASETS  * FILE   NREC   LENGTH (MB)   RECORD NAMES
              1      19       30.04       500      700      610      900      950      970     1000      129      960     1100   
                                          VAR     GEOM    BASINP   SYMINP    ZMAT    AOBASIS   BASIS     P2S    ABASIS      S 
                                         1400     1410     1200     1210     1080     1600     1650     1300     1700   
                                           T        V       H0       H01     AOSYM     SMH    MOLCAS    ERIS     OPER   

              3       5       14.78       500      610      700     1000     2100   
                                          VAR    BASINP    GEOM     BASIS     RHF  

 PROGRAMS   *        TOTAL       INT   RESTART
 CPU TIMES  *         0.28      0.16      0.02
 REAL TIME  *         0.44 SEC
 DISK USED  *        49.46 MB
 **********************************************************************************************************************************


 PROGRAM * CCSD (Closed-shell coupled cluster)     Authors: C. Hampel, H.-J. Werner, 1991, M. Deegan, P.J. Knowles, 1992


 Input parameters for THRESH:

 ENERGY   =    1.00D-10
 COEFF    =    1.00D-12
 PRINTCI  =    0.000000
 THRPRINT =    0.000000

 Convergence thresholds:  THRVAR = 1.00D-24  THRDEN = 1.00D-10

 Number of core orbitals:           2 (   1   1 )
 Number of closed-shell orbitals:   1 (   1   0 )
 Number of external orbitals:      25 (  12  13 )

 Molecular orbitals read from record     2100.3  Type=RHF/CANONICAL (state 1.1)

 Number of N-1 electron functions:               0
 Number of N-2 electron functions:               1
 Number of singly external CSFs:                 0
 Number of doubly external CSFs:               169
 Total number of CSFs:                         170

 Length of J-op  integral file:               0.00 MB
 Length of K-op  integral file:               0.06 MB
 Length of 3-ext integral record:             0.00 MB

 Integral transformation finished. Total CPU:   0.00 sec, npass=  1  Memory used:   0.08 MW

 Reference energy:                    -14.86923112

 MP2 singlet pair energy:              -0.01918815
 MP2 triplet pair energy:               0.00000000
 MP2 correlation energy:               -0.01918815
 MP2 total energy:                    -14.88841927

 SCS-MP2 correlation energy:           -0.02302578   (PS=  1.200000  PT=  0.333333)
 SCS-MP2 total energy:                -14.89225690

 ITER.      SQ.NORM     CORR.ENERGY   TOTAL ENERGY   ENERGY CHANGE        DEN1      VAR(S)    VAR(P)  DIIS     TIME  TIME/IT
   1      1.05133399    -0.02749553   -14.89672665    -0.00830738    -0.00445037  0.00D+00  0.28D-02  1  1     0.02     0.00
   2      1.08987763    -0.03101173   -14.90024285    -0.00351620    -0.00612974  0.00D+00  0.27D-03  2  2     0.02     0.00
   3      1.10099684    -0.03089224   -14.90012336     0.00011949    -0.00093758  0.00D+00  0.26D-04  3  3     0.02     0.00
   4      1.10624399    -0.03124154   -14.90047266    -0.00034931    -0.00046442  0.00D+00  0.34D-05  4  4     0.02     0.00
   5      1.10529536    -0.03102084   -14.90025196     0.00022070     0.00014055  0.00D+00  0.37D-06  5  5     0.03     0.00
   6      1.10620838    -0.03112737   -14.90035849    -0.00010653    -0.00009580  0.00D+00  0.32D-07  6  6     0.03     0.00
   7      1.10588345    -0.03108951   -14.90032063     0.00003786     0.00003674  0.00D+00  0.42D-08  6  1     0.03     0.00
   8      1.10594706    -0.03109567   -14.90032680    -0.00000616    -0.00000655  0.00D+00  0.47D-09  6  3     0.03     0.00
   9      1.10592213    -0.03109303   -14.90032416     0.00000264     0.00000220  0.00D+00  0.38D-10  6  4     0.04     0.00
  10      1.10593025    -0.03109395   -14.90032508    -0.00000092    -0.00000083  0.00D+00  0.90D-11  6  2     0.04     0.00
  11      1.10593059    -0.03109396   -14.90032508    -0.00000001    -0.00000001  0.00D+00  0.11D-11  6  6     0.04     0.00
  12      1.10593053    -0.03109396   -14.90032508     0.00000000     0.00000000  0.00D+00  0.26D-12  6  5     0.04     0.00
  13      1.10593052    -0.03109396   -14.90032508     0.00000000    -0.00000000  0.00D+00  0.88D-13  6  1     0.04     0.00
  14      1.10593049    -0.03109396   -14.90032508    -0.00000000     0.00000000  0.00D+00  0.44D-14  6  4     0.05     0.00
  15      1.10593050    -0.03109396   -14.90032508     0.00000000    -0.00000000  0.00D+00  0.30D-15  6  3     0.05     0.00
  16      1.10593051    -0.03109396   -14.90032508     0.00000000    -0.00000000  0.00D+00  0.75D-16  6  2     0.05     0.00
  17      1.10593051    -0.03109396   -14.90032508    -0.00000000     0.00000000  0.00D+00  0.12D-16  6  6     0.05     0.00
  18      1.10593051    -0.03109396   -14.90032508    -0.00000000     0.00000000  0.00D+00  0.19D-17  6  5     0.06     0.00
  19      1.10593051    -0.03109396   -14.90032508    -0.00000000     0.00000000  0.00D+00  0.22D-18  6  1     0.06     0.00
  20      1.10593051    -0.03109396   -14.90032508    -0.00000000     0.00000000  0.00D+00  0.35D-19  6  4     0.06     0.00
  21      1.10593051    -0.03109396   -14.90032508    -0.00000000     0.00000000  0.00D+00  0.14D-19  6  3     0.06     0.00
  22      1.10593051    -0.03109396   -14.90032508     0.00000000    -0.00000000  0.00D+00  0.22D-20  6  2     0.06     0.00
  23      1.10593051    -0.03109396   -14.90032508     0.00000000    -0.00000000  0.00D+00  0.21D-21  6  6     0.07     0.00
  24      1.10593051    -0.03109396   -14.90032508    -0.00000000     0.00000000  0.00D+00  0.56D-22  6  5     0.07     0.00
  25      1.10593051    -0.03109396   -14.90032508    -0.00000000     0.00000000  0.00D+00  0.69D-23  6  1     0.07     0.00
  26      1.10593051    -0.03109396   -14.90032508    -0.00000000     0.00000000  0.00D+00  0.50D-24  6  4     0.07     0.00


 Doubles amplitudes (print threshold =  0.000E+00):

         I         J         SYM. A    SYM. B    A         B      T(IJ, AB)

         1         1         1         1         1         1     -0.12017397
         1         1         1         1         1         2     -0.00000000
         1         1         1         1         1         3      0.00000000
         1         1         1         1         1         4     -0.00000000
         1         1         1         1         1         5      0.02799739
         1         1         1         1         1         6     -0.07864430
         1         1         1         1         1         7      0.00000000
         1         1         1         1         1         8     -0.00000000
         1         1         1         1         1         9      0.00000000
         1         1         1         1         1        10      0.03161401
         1         1         1         1         1        11     -0.00076014
         1         1         1         1         1        12      0.00000000
         1         1         1         1         2         1     -0.00000000
         1         1         1         1         2         2     -0.12017397
         1         1         1         1         2         3      0.00000000
         1         1         1         1         2         4     -0.00000000
         1         1         1         1         2         5      0.07864430
         1         1         1         1         2         6      0.02799739
         1         1         1         1         2         7      0.00000000
         1         1         1         1         2         8     -0.00000000
         1         1         1         1         2         9      0.00000000
         1         1         1         1         2        10      0.00076014
         1         1         1         1         2        11      0.03161401
         1         1         1         1         2        12      0.00000000
         1         1         1         1         3         1      0.00000000
         1         1         1         1         3         2      0.00000000
         1         1         1         1         3         3     -0.05239474
         1         1         1         1         3         4      0.05805511
         1         1         1         1         3         5     -0.00000000
         1         1         1         1         3         6     -0.00000000
         1         1         1         1         3         7     -0.00706803
         1         1         1         1         3         8     -0.00000000
         1         1         1         1         3         9     -0.00000000
         1         1         1         1         3        10      0.00000000
         1         1         1         1         3        11      0.00000000
         1         1         1         1         3        12     -0.01912748
         1         1         1         1         4         1     -0.00000000
         1         1         1         1         4         2     -0.00000000
         1         1         1         1         4         3      0.05805511
         1         1         1         1         4         4     -0.07155343
         1         1         1         1         4         5      0.00000000
         1         1         1         1         4         6     -0.00000000
         1         1         1         1         4         7      0.00375344
         1         1         1         1         4         8      0.00000000
         1         1         1         1         4         9      0.00000000
         1         1         1         1         4        10      0.00000000
         1         1         1         1         4        11     -0.00000000
         1         1         1         1         4        12      0.02501224
         1         1         1         1         5         1      0.02799739
         1         1         1         1         5         2      0.07864430
         1         1         1         1         5         3     -0.00000000
         1         1         1         1         5         4      0.00000000
         1         1         1         1         5         5     -0.06061174
         1         1         1         1         5         6      0.00000000
         1         1         1         1         5         7     -0.00000000
         1         1         1         1         5         8      0.00000000
         1         1         1         1         5         9     -0.00000000
         1         1         1         1         5        10     -0.00876527
         1         1         1         1         5        11     -0.02286637
         1         1         1         1         5        12      0.00000000
         1         1         1         1         6         1     -0.07864430
         1         1         1         1         6         2      0.02799739
         1         1         1         1         6         3     -0.00000000
         1         1         1         1         6         4     -0.00000000
         1         1         1         1         6         5      0.00000000
         1         1         1         1         6         6     -0.06061174
         1         1         1         1         6         7      0.00000000
         1         1         1         1         6         8     -0.00000000
         1         1         1         1         6         9     -0.00000000
         1         1         1         1         6        10      0.02286637
         1         1         1         1         6        11     -0.00876527
         1         1         1         1         6        12     -0.00000000
         1         1         1         1         7         1      0.00000000
         1         1         1         1         7         2      0.00000000
         1         1         1         1         7         3     -0.00706803
         1         1         1         1         7         4      0.00375344
         1         1         1         1         7         5     -0.00000000
         1         1         1         1         7         6      0.00000000
         1         1         1         1         7         7     -0.00471054
         1         1         1         1         7         8      0.00000000
         1         1         1         1         7         9      0.00000000
         1         1         1         1         7        10     -0.00000000
         1         1         1         1         7        11     -0.00000000
         1         1         1         1         7        12     -0.00155652
         1         1         1         1         8         1     -0.00000000
         1         1         1         1         8         2     -0.00000000
         1         1         1         1         8         3     -0.00000000
         1         1         1         1         8         4      0.00000000
         1         1         1         1         8         5      0.00000000
         1         1         1         1         8         6     -0.00000000
         1         1         1         1         8         7      0.00000000
         1         1         1         1         8         8     -0.00624665
         1         1         1         1         8         9     -0.00000000
         1         1         1         1         8        10      0.00000000
         1         1         1         1         8        11      0.00000000
         1         1         1         1         8        12     -0.00000000
         1         1         1         1         9         1      0.00000000
         1         1         1         1         9         2      0.00000000
         1         1         1         1         9         3     -0.00000000
         1         1         1         1         9         4      0.00000000
         1         1         1         1         9         5     -0.00000000
         1         1         1         1         9         6     -0.00000000
         1         1         1         1         9         7      0.00000000
         1         1         1         1         9         8     -0.00000000
         1         1         1         1         9         9     -0.00624665
         1         1         1         1         9        10      0.00000000
         1         1         1         1         9        11     -0.00000000
         1         1         1         1         9        12      0.00000000
         1         1         1         1        10         1      0.03161401
         1         1         1         1        10         2      0.00076014
         1         1         1         1        10         3      0.00000000
         1         1         1         1        10         4      0.00000000
         1         1         1         1        10         5     -0.00876527
         1         1         1         1        10         6      0.02286637
         1         1         1         1        10         7     -0.00000000
         1         1         1         1        10         8      0.00000000
         1         1         1         1        10         9      0.00000000
         1         1         1         1        10        10     -0.01307474
         1         1         1         1        10        11      0.00000000
         1         1         1         1        10        12      0.00000000
         1         1         1         1        11         1     -0.00076014
         1         1         1         1        11         2      0.03161401
         1         1         1         1        11         3      0.00000000
         1         1         1         1        11         4     -0.00000000
         1         1         1         1        11         5     -0.02286637
         1         1         1         1        11         6     -0.00876527
         1         1         1         1        11         7     -0.00000000
         1         1         1         1        11         8      0.00000000
         1         1         1         1        11         9     -0.00000000
         1         1         1         1        11        10      0.00000000
         1         1         1         1        11        11     -0.01307474
         1         1         1         1        11        12      0.00000000
         1         1         1         1        12         1      0.00000000
         1         1         1         1        12         2      0.00000000
         1         1         1         1        12         3     -0.01912748
         1         1         1         1        12         4      0.02501224
         1         1         1         1        12         5      0.00000000
         1         1         1         1        12         6     -0.00000000
         1         1         1         1        12         7     -0.00155652
         1         1         1         1        12         8     -0.00000000
         1         1         1         1        12         9      0.00000000
         1         1         1         1        12        10      0.00000000
         1         1         1         1        12        11      0.00000000
         1         1         1         1        12        12     -0.01142582
         1         1         2         2         1         1     -0.07873508
         1         1         2         2         1         2     -0.00000000
         1         1         2         2         1         3      0.00000000
         1         1         2         2         1         4      0.05624929
         1         1         2         2         1         5     -0.00000000
         1         1         2         2         1         6     -0.00000000
         1         1         2         2         1         7     -0.00310042
         1         1         2         2         1         8     -0.03110244
         1         1         2         2         1         9      0.00000000
         1         1         2         2         1        10     -0.00000000
         1         1         2         2         1        11     -0.00000000
         1         1         2         2         1        12     -0.00000000
         1         1         2         2         1        13      0.00685888
         1         1         2         2         2         1     -0.00000000
         1         1         2         2         2         2     -0.00123248
         1         1         2         2         2         3     -0.00000000
         1         1         2         2         2         4      0.00000000
         1         1         2         2         2         5     -0.00178072
         1         1         2         2         2         6     -0.00090797
         1         1         2         2         2         7     -0.00000000
         1         1         2         2         2         8      0.00000000
         1         1         2         2         2         9     -0.00000000
         1         1         2         2         2        10      0.00000000
         1         1         2         2         2        11     -0.00070181
         1         1         2         2         2        12     -0.00113696
         1         1         2         2         2        13     -0.00000000
         1         1         2         2         3         1      0.00000000
         1         1         2         2         3         2      0.00000000
         1         1         2         2         3         3     -0.00123248
         1         1         2         2         3         4     -0.00000000
         1         1         2         2         3         5     -0.00090797
         1         1         2         2         3         6      0.00178072
         1         1         2         2         3         7      0.00000000
         1         1         2         2         3         8     -0.00000000
         1         1         2         2         3         9     -0.00000000
         1         1         2         2         3        10      0.00000000
         1         1         2         2         3        11      0.00113696
         1         1         2         2         3        12     -0.00070181
         1         1         2         2         3        13      0.00000000
         1         1         2         2         4         1      0.05624929
         1         1         2         2         4         2      0.00000000
         1         1         2         2         4         3     -0.00000000
         1         1         2         2         4         4     -0.04183308
         1         1         2         2         4         5     -0.00000000
         1         1         2         2         4         6      0.00000000
         1         1         2         2         4         7      0.00171171
         1         1         2         2         4         8      0.02480882
         1         1         2         2         4         9     -0.00000000
         1         1         2         2         4        10      0.00000000
         1         1         2         2         4        11      0.00000000
         1         1         2         2         4        12      0.00000000
         1         1         2         2         4        13     -0.00625167
         1         1         2         2         5         1     -0.00000000
         1         1         2         2         5         2     -0.00178072
         1         1         2         2         5         3     -0.00090797
         1         1         2         2         5         4     -0.00000000
         1         1         2         2         5         5     -0.00386647
         1         1         2         2         5         6     -0.00000000
         1         1         2         2         5         7     -0.00000000
         1         1         2         2         5         8      0.00000000
         1         1         2         2         5         9     -0.00000000
         1         1         2         2         5        10      0.00000000
         1         1         2         2         5        11     -0.00020878
         1         1         2         2         5        12     -0.00255640
         1         1         2         2         5        13      0.00000000
         1         1         2         2         6         1     -0.00000000
         1         1         2         2         6         2     -0.00090797
         1         1         2         2         6         3      0.00178072
         1         1         2         2         6         4      0.00000000
         1         1         2         2         6         5     -0.00000000
         1         1         2         2         6         6     -0.00386647
         1         1         2         2         6         7     -0.00000000
         1         1         2         2         6         8     -0.00000000
         1         1         2         2         6         9      0.00000000
         1         1         2         2         6        10      0.00000000
         1         1         2         2         6        11     -0.00255640
         1         1         2         2         6        12      0.00020878
         1         1         2         2         6        13      0.00000000
         1         1         2         2         7         1     -0.00310042
         1         1         2         2         7         2     -0.00000000
         1         1         2         2         7         3      0.00000000
         1         1         2         2         7         4      0.00171171
         1         1         2         2         7         5     -0.00000000
         1         1         2         2         7         6     -0.00000000
         1         1         2         2         7         7     -0.00061945
         1         1         2         2         7         8     -0.00022563
         1         1         2         2         7         9      0.00000000
         1         1         2         2         7        10      0.00000000
         1         1         2         2         7        11     -0.00000000
         1         1         2         2         7        12     -0.00000000
         1         1         2         2         7        13     -0.00008785
         1         1         2         2         8         1     -0.03110244
         1         1         2         2         8         2      0.00000000
         1         1         2         2         8         3     -0.00000000
         1         1         2         2         8         4      0.02480882
         1         1         2         2         8         5      0.00000000
         1         1         2         2         8         6     -0.00000000
         1         1         2         2         8         7     -0.00022563
         1         1         2         2         8         8     -0.01765945
         1         1         2         2         8         9      0.00000000
         1         1         2         2         8        10     -0.00000000
         1         1         2         2         8        11      0.00000000
         1         1         2         2         8        12      0.00000000
         1         1         2         2         8        13      0.00573539
         1         1         2         2         9         1      0.00000000
         1         1         2         2         9         2     -0.00000000
         1         1         2         2         9         3     -0.00000000
         1         1         2         2         9         4     -0.00000000
         1         1         2         2         9         5     -0.00000000
         1         1         2         2         9         6      0.00000000
         1         1         2         2         9         7      0.00000000
         1         1         2         2         9         8      0.00000000
         1         1         2         2         9         9     -0.00198088
         1         1         2         2         9        10     -0.00000000
         1         1         2         2         9        11     -0.00000000
         1         1         2         2         9        12     -0.00000000
         1         1         2         2         9        13     -0.00000000
         1         1         2         2        10         1     -0.00000000
         1         1         2         2        10         2      0.00000000
         1         1         2         2        10         3      0.00000000
         1         1         2         2        10         4      0.00000000
         1         1         2         2        10         5      0.00000000
         1         1         2         2        10         6      0.00000000
         1         1         2         2        10         7      0.00000000
         1         1         2         2        10         8     -0.00000000
         1         1         2         2        10         9     -0.00000000
         1         1         2         2        10        10     -0.00198088
         1         1         2         2        10        11      0.00000000
         1         1         2         2        10        12      0.00000000
         1         1         2         2        10        13     -0.00000000
         1         1         2         2        11         1     -0.00000000
         1         1         2         2        11         2     -0.00070181
         1         1         2         2        11         3      0.00113696
         1         1         2         2        11         4      0.00000000
         1         1         2         2        11         5     -0.00020878
         1         1         2         2        11         6     -0.00255640
         1         1         2         2        11         7     -0.00000000
         1         1         2         2        11         8      0.00000000
         1         1         2         2        11         9     -0.00000000
         1         1         2         2        11        10      0.00000000
         1         1         2         2        11        11     -0.00229941
         1         1         2         2        11        12     -0.00000000
         1         1         2         2        11        13     -0.00000000
         1         1         2         2        12         1     -0.00000000
         1         1         2         2        12         2     -0.00113696
         1         1         2         2        12         3     -0.00070181
         1         1         2         2        12         4      0.00000000
         1         1         2         2        12         5     -0.00255640
         1         1         2         2        12         6      0.00020878
         1         1         2         2        12         7     -0.00000000
         1         1         2         2        12         8      0.00000000
         1         1         2         2        12         9     -0.00000000
         1         1         2         2        12        10      0.00000000
         1         1         2         2        12        11      0.00000000
         1         1         2         2        12        12     -0.00229941
         1         1         2         2        12        13     -0.00000000
         1         1         2         2        13         1      0.00685888
         1         1         2         2        13         2     -0.00000000
         1         1         2         2        13         3      0.00000000
         1         1         2         2        13         4     -0.00625167
         1         1         2         2        13         5      0.00000000
         1         1         2         2        13         6      0.00000000
         1         1         2         2        13         7     -0.00008785
         1         1         2         2        13         8      0.00573539
         1         1         2         2        13         9     -0.00000000
         1         1         2         2        13        10     -0.00000000
         1         1         2         2        13        11     -0.00000000
         1         1         2         2        13        12     -0.00000000
         1         1         2         2        13        13     -0.00342912


 RESULTS
 =======

  Reference energy                    -14.869231121713
  CCD singlet pair energy              -0.031093961286
  CCD triplet pair energy               0.000000000000
  CCD correlation energy               -0.031093961286

 !CCD total energy                    -14.900325082999

 Timing summary (sec):

 STEP                 CPU(USER)    SYS     CPU(TOT)    WALL
 CCSD iterations         0.07      0.00      0.07      0.09

 Program statistics:

 Available memory in ccsd:                39999196
 Min. memory needed in ccsd:                  5754
 Max. memory used in ccsd:                    5754
 Max. memory used in cckext:                 38765 (26 integral passes)



 **********************************************************************************************************************************
 DATASETS  * FILE   NREC   LENGTH (MB)   RECORD NAMES
              1      20       30.08       500      700      610      900      950      970     1000      129      960     1100   
                                          VAR     GEOM    BASINP   SYMINP    ZMAT    AOBASIS   BASIS     P2S    ABASIS      S 
                                         1400     1410     1200     1210     1080     1600     1650     1300     1700     1380   
                                           T        V       H0       H01     AOSYM     SMH    MOLCAS    ERIS     OPER     JKOP   

              3       5       14.78       500      610      700     1000     2100   
                                          VAR    BASINP    GEOM     BASIS     RHF  

 PROGRAMS   *        TOTAL      CCSD       INT   RESTART
 CPU TIMES  *         0.43      0.15      0.16      0.02
 REAL TIME  *         0.60 SEC
 DISK USED  *        49.46 MB
 **********************************************************************************************************************************
 Molecular orbitals read from record     2100.3  Type=RHF/CANONICAL (state 1.1)
 Occupation numbers read from record     2100.3  Type=RHF/RHF (state 1.1)
 Orbital energies read from record       2100.3  Type=RHF/CANONICAL (state 1.1)
 Redundancy group numbers read from rec  2100.3  Type=RHF/RHF (state 1.1)

 CCSD/cc-pVDZ energy=    -14.900325082999

            CCSD
    -14.90032508
 **********************************************************************************************************************************
 Molpro calculation terminated
