
 Primary working directories    : /scr/yuriaoto/job.023426/molpro.F2gWkQBm9i
 Secondary working directories  : /scr/yuriaoto/job.023426/molpro.F2gWkQBm9i
 Wavefunction directory         : /scr/yuriaoto/job.023426/
 Main file repository           : /scr/yuriaoto/job.023426/molpro.F2gWkQBm9i/

 id        : yuriaoto

 Nodes             nprocs
 t-rex.ufabc.int.br    1

 Using customized tuning parameters: mindgm=8; mindgv=16; mindgc=1; mindgr=1; noblas=0; minvec=7
 default implementation of scratch files=df  


 Variables initialized (933), CPU time= 0.00 sec
 ***,
 memory,40,m
 gprint,orbital,basis,civector
 gthresh,thrprint=0,printci=0.0
 file,3,wfu.dat,old
 
 {ccsd,CC_NORM_MAX=10.0
 thresh,printci=0.0,ENERGY=1.0E-10,COEFF=1.0E-12
 print,ref=1
 core,0
 wf,6,1,0;
 }
 
 Commands  initialized (760), CPU time= 0.01 sec, 617 directives.
 Default parameters read. Elapsed time= 0.04 sec

 Checking input...
 Passed
1


                                         ***  PROGRAM SYSTEM MOLPRO  ***
                                       Copyright, TTI GmbH Stuttgart, 2015
                                    Version 2019.2 linked Abr  7 2019 15:10:35


 **********************************************************************************************************************************
 LABEL *                                                                                 
  64 bit serial version                                                                  DATE: 02-Jun-20          TIME: 00:30:31  
 **********************************************************************************************************************************

 SHA1:             3a8a58c585c929645742fb5a1b7541a4ad1da699
 **********************************************************************************************************************************


 THRESHOLDS:

 ZERO    =  1.00D-12  ONEINT  =  1.00D-12  TWOINT  =  1.00D-11  PREFAC  =  1.00D-14  XXXXXX  =  1.00D-09  EORDER  =  1.00D-04
 ENERGY  =  0.00D+00  ETEST   =  0.00D+00  EDENS   =  0.00D+00  THRDEDEF=  1.00D-06  GRADIENT=  1.00D-02  STEP    =  1.00D-03
 ORBITAL =  1.00D-05  CIVEC   =  1.00D-05  COEFF   =  1.00D-04  PRINTCI =  0.00D+00  PUNCHCI =  9.90D+01  OPTGRAD =  3.00D-04
 OPTENERG=  1.00D-06  OPTSTEP =  3.00D-04  THRGRAD =  1.00D-10  COMPRESS=  1.00D-11  VARMIN  =  1.00D-07  VARMAX  =  1.00D-03
 THRDOUB =  0.00D+00  THRDIV  =  1.00D-05  THRRED  =  1.00D-07  THRPSP  =  1.00D+00  THRDC   =  1.00D-10  THRCS   =  1.00D-10
 THRNRM  =  1.00D-08  THREQ   =  0.00D+00  THRDE   =  1.00D+00  THRREF  =  1.00D-05  SPARFAC =  1.00D+00  THRDLP  =  1.00D-07
 THRDIA  =  1.00D-10  THRDLS  =  1.00D-07  THRGPS  =  0.00D+00  THRKEX  =  0.00D+00  THRDIS  =  2.00D-01  THRVAR  =  1.00D-10
 THRLOC  =  1.00D-06  THRGAP  =  1.00D-06  THRLOCT = -1.00D+00  THRGAPT = -1.00D+00  THRORB  =  1.00D-06  THRMLTP =  0.00D+00
 THRCPQCI=  1.00D-10  KEXTA   =  0.00D+00  THRCOARS=  0.00D+00  SYMTOL  =  1.00D-06  GRADTOL =  1.00D-06  THROVL  =  1.00D-08
 THRORTH =  1.00D-08  GRID    =  1.00D-06  GRIDMAX =  1.00D-03  DTMAX   =  0.00D+00  THROCCDE=  1.00D-01  THROCCDE=  1.00D-01
 THRPRINT=  0.00D+00


 Variable memory set to   40000000 words,  buffer space 



 Permanent file  3  wfu.dat  assigned.  Implementation=df    Size= 14.09 MB


 PROGRAM * RESTART 


 Reading variables from file 3

 _FNUC           =      0.00000000
 _BASIS          =    CC-PVDZ
 _NELEC          =      6.00000000
 _PROGRAM        =    RHF-SCF
 _DMX            =      0.00000000
 _DMY            =     -0.00000000
 _DMX_SCF        =      0.00000000
 _DMY_SCF        =     -0.00000000
 _DMZ_SCF        =      0.00000000
 _HOMO           =      2.10000000
 _EHOMO          =     -0.18089003
 _LUMO           =      2.20000000
 _ELUMO          =      0.00860175
 _ENERGY         =    -14.86923112
 _ENERGY_METHOD  =    RHF
 _ENERGY_BASIS   =    cc-pVDZ
 _ENUC           =      1.80000000
 _EPS1(1:14)     =     -2.44754692    -0.18089003     0.03216991     0.03216991     0.04506451     0.14188695
                        0.16180289     0.16180289     0.17633377     0.31871808     0.31871808     0.35571558
                        0.35571558     0.45987531
 _EPS2(1:14)     =     -2.44716908     0.00860175     0.06717723     0.06717723     0.08426831     0.21640604
                        0.21640604     0.25807888     0.31859242     0.39752665     0.39752665     0.51855068
                        0.51855068     0.94057166
 _IPROC_MPP      =      0.00000000
 _IPROC_MPPX     =      0.00000000
 _ORBITAL        =   2100.30000000
 _STATUS         =      1.00000000
 _DATE           =    21-Oct-19
 _LASTORB        =    RHF
 _OUTPUT         =    /scr/yuriaoto/job.022417/RHF.xml
 _PGROUP         =    Cs  
 _TIME           =    10:51:54
 R               =      5.00000000

 Geometry written to block  1 of record 700


 **********************************************************************************************************************************
 DATASETS  * FILE   NREC   LENGTH (MB)   RECORD NAMES
              3       5       14.78       500      610      700     1000     2100   
                                          VAR    BASINP    GEOM     BASIS     RHF  

 PROGRAMS   *        TOTAL   RESTART
 CPU TIMES  *         0.12      0.02
 REAL TIME  *         0.14 SEC
 DISK USED  *        26.85 MB
 **********************************************************************************************************************************


 Recomputing integrals since basis changed


 Using spherical harmonics

 Library entry LI     S cc-pVDZ              selected for orbital group  1
 Library entry LI     P cc-pVDZ              selected for orbital group  1
 Library entry LI     D cc-pVDZ              selected for orbital group  1


 PROGRAM * SEWARD (Integral evaluation for generally contracted gaussian basis sets)     Author: Roland Lindh, 1990

 Geometry written to block  1 of record 700

 Orientation using atomic masses  
 Molecule type: Linear
 User-specified symmetry elements: Z
 Symmetry elements: Z
 Rotational constants:      20.8009354     20.8009354      0.0000000 GHz  (calculated with average atomic masses)

 Point group  Cs  



 ATOMIC COORDINATES

 NR  ATOM    CHARGE       X              Y              Z

   1  LI1     3.00    0.000000000    0.000000000   -2.500000000
   2  LI2     3.00    0.000000000    0.000000000    2.500000000

 Bond lengths in Bohr (Angstrom)

 1-2  5.000000000
     ( 2.645886055)


 BASIS DATA

   Nr Sym  Nuc  Type         Exponents   Contraction coefficients

    1.1 A'    1  1s        1469.000000     0.000766   -0.000120    0.000000
    2.1 A'    2  1s         220.500000     0.005892   -0.000923    0.000000
    3.1 A'                   50.260000     0.029671   -0.004689    0.000000
                             14.240000     0.109180   -0.017682    0.000000
                              4.581000     0.282789   -0.048902    0.000000
                              1.580000     0.453123   -0.096009    0.000000
                              0.564000     0.274774   -0.136380    0.000000
                              0.073450     0.009751    0.575102    0.000000
                              0.028050    -0.003180    0.517661    1.000000
    4.1 A'    1  2px          1.534000     0.022784
              2  2px          0.274900     0.139107
                              0.073620     0.500375
                              0.024030     0.508474
    5.1 A'    1  2py          1.534000     0.022784
              2  2py          0.274900     0.139107
                              0.073620     0.500375
                              0.024030     0.508474
    6.1 A'    1  2pz          1.534000     0.022784
              2 -2pz          0.274900     0.139107
                              0.073620     0.500375
                              0.024030     0.508474
    7.1 A'    1  2px          1.534000     0.000000
              2  2px          0.274900     0.000000
                              0.073620     0.000000
                              0.024030     1.000000
    8.1 A'    1  2py          1.534000     0.000000
              2  2py          0.274900     0.000000
                              0.073620     0.000000
                              0.024030     1.000000
    9.1 A'    1  2pz          1.534000     0.000000
              2 -2pz          0.274900     0.000000
                              0.073620     0.000000
                              0.024030     1.000000
   10.1 A'    1  3d0          0.114400     1.000000
              2  3d0   
   11.1 A'    1  3d2-         0.114400     1.000000
              2  3d2-  
   12.1 A'    1  3d2+         0.114400     1.000000
              2  3d2+  
   13.1 A'    1  3d1+         0.114400     1.000000
              2 -3d1+  
   14.1 A'    1  3d1-         0.114400     1.000000
              2 -3d1-  
    1.2 A"    1  1s        1469.000000     0.000766   -0.000120    0.000000
    2.2 A"    2 -1s         220.500000     0.005892   -0.000923    0.000000
    3.2 A"                   50.260000     0.029671   -0.004689    0.000000
                             14.240000     0.109180   -0.017682    0.000000
                              4.581000     0.282789   -0.048902    0.000000
                              1.580000     0.453123   -0.096009    0.000000
                              0.564000     0.274774   -0.136380    0.000000
                              0.073450     0.009751    0.575102    0.000000
                              0.028050    -0.003180    0.517661    1.000000
    4.2 A"    1  2pz          1.534000     0.022784
              2  2pz          0.274900     0.139107
                              0.073620     0.500375
                              0.024030     0.508474
    5.2 A"    1  2px          1.534000     0.022784
              2 -2px          0.274900     0.139107
                              0.073620     0.500375
                              0.024030     0.508474
    6.2 A"    1  2py          1.534000     0.022784
              2 -2py          0.274900     0.139107
                              0.073620     0.500375
                              0.024030     0.508474
    7.2 A"    1  2pz          1.534000     0.000000
              2  2pz          0.274900     0.000000
                              0.073620     0.000000
                              0.024030     1.000000
    8.2 A"    1  2px          1.534000     0.000000
              2 -2px          0.274900     0.000000
                              0.073620     0.000000
                              0.024030     1.000000
    9.2 A"    1  2py          1.534000     0.000000
              2 -2py          0.274900     0.000000
                              0.073620     0.000000
                              0.024030     1.000000
   10.2 A"    1  3d1+         0.114400     1.000000
              2  3d1+  
   11.2 A"    1  3d1-         0.114400     1.000000
              2  3d1-  
   12.2 A"    1  3d0          0.114400     1.000000
              2 -3d0   
   13.2 A"    1  3d2-         0.114400     1.000000
              2 -3d2-  
   14.2 A"    1  3d2+         0.114400     1.000000
              2 -3d2+  

 NUCLEAR CHARGE:                    6
 NUMBER OF PRIMITIVE AOS:          54
 NUMBER OF SYMMETRY AOS:           52
 NUMBER OF CONTRACTIONS:           28   (   14A'  +   14A"  )
 NUMBER OF CORE ORBITALS:           2   (    1A'  +    1A"  )
 NUMBER OF VALENCE ORBITALS:        8   (    4A'  +    4A"  )


 NUCLEAR REPULSION ENERGY    1.80000000

 EXTRA SYMMETRY OF AOS IN SYMMETRY 1:   1 1 1 2 3 1 2 3 1 1   4 5 2 3
 EXTRA SYMMETRY OF AOS IN SYMMETRY 2:   1 1 1 1 2 3 1 2 3 2   3 1 4 5

 Eigenvalues of metric

         1 0.313E-01 0.101E+00 0.135E+00 0.135E+00 0.792E+00 0.106E+01 0.116E+01 0.124E+01
         2 0.256E-02 0.901E-02 0.586E-01 0.586E-01 0.995E-01 0.230E+00 0.230E+00 0.761E+00


 Contracted 2-electron integrals neglected if value below      1.0D-11
 AO integral compression algorithm  1   Integral accuracy      1.0D-11

     0.262 MB (compressed) written to integral file ( 35.0%)


 NUMBER OF SORTED TWO-ELECTRON INTEGRALS:      44205.     BUFFER LENGTH:  32768
 NUMBER OF SEGMENTS:   1  SEGMENT LENGTH:      44205      RECORD LENGTH: 524288

 Memory used in sort:       0.60 MW

 SORT1 READ      102344. AND WROTE       11237. INTEGRALS IN      1 RECORDS. CPU TIME:     0.00 SEC, REAL TIME:     0.00 SEC
 SORT2 READ       11237. AND WROTE       44205. INTEGRALS IN      1 RECORDS. CPU TIME:     0.02 SEC, REAL TIME:     0.02 SEC

 FILE SIZES:   FILE 1:    30.2 MBYTE,  FILE 4:     4.2 MBYTE,   TOTAL:     34.5 MBYTE

 OPERATOR DM      FOR CENTER  0  COORDINATES:    0.000000    0.000000    0.000000


 **********************************************************************************************************************************
 DATASETS  * FILE   NREC   LENGTH (MB)   RECORD NAMES
              1      19       30.04       500      700      610      900      950      970     1000      129      960     1100   
                                          VAR     GEOM    BASINP   SYMINP    ZMAT    AOBASIS   BASIS     P2S    ABASIS      S 
                                         1400     1410     1200     1210     1080     1600     1650     1300     1700   
                                           T        V       H0       H01     AOSYM     SMH    MOLCAS    ERIS     OPER   

              3       5       14.78       500      610      700     1000     2100   
                                          VAR    BASINP    GEOM     BASIS     RHF  

 PROGRAMS   *        TOTAL       INT   RESTART
 CPU TIMES  *         0.29      0.17      0.02
 REAL TIME  *         0.47 SEC
 DISK USED  *        49.46 MB
 **********************************************************************************************************************************


 PROGRAM * CCSD (Closed-shell coupled cluster)     Authors: C. Hampel, H.-J. Werner, 1991, M. Deegan, P.J. Knowles, 1992


 Input parameters for THRESH:

 ENERGY   =    1.00D-10
 COEFF    =    1.00D-12
 PRINTCI  =    0.000000
 THRPRINT =    0.000000

 Convergence thresholds:  THRVAR = 1.00D-24  THRDEN = 1.00D-10

 Number of closed-shell orbitals:   3 (   2   1 )
 Number of external orbitals:      25 (  12  13 )

 Molecular orbitals read from record     2100.3  Type=RHF/CANONICAL (state 1.1)

 Number of N-1 electron functions:               3
 Number of N-2 electron functions:               6
 Number of singly external CSFs:                37
 Number of doubly external CSFs:              1444
 Total number of CSFs:                        1482

 Length of J-op  integral file:               0.00 MB
 Length of K-op  integral file:               0.06 MB
 Length of 3-ext integral record:             0.00 MB

 Integral transformation finished. Total CPU:   0.00 sec, npass=  1  Memory used:   0.09 MW

 Reference energy:                    -14.86923112

 MP2 singlet pair energy:              -0.01997317
 MP2 triplet pair energy:              -0.00016887
 MP2 correlation energy:               -0.02014205
 MP2 total energy:                    -14.88937317

 SCS-MP2 correlation energy:           -0.02407288   (PS=  1.200000  PT=  0.333333)
 SCS-MP2 total energy:                -14.89330400

 ITER.      SQ.NORM     CORR.ENERGY   TOTAL ENERGY   ENERGY CHANGE        DEN1      VAR(S)    VAR(P)  DIIS     TIME  TIME/IT
   1      1.05144518    -0.02842096   -14.89765208    -0.00827892    -0.00442389  0.64D-04  0.28D-02  1  1     0.02     0.01
   2      1.08734882    -0.03189747   -14.90112859    -0.00347651    -0.00576258  0.40D-04  0.30D-03  2  2     0.02     0.01
   3      1.09933050    -0.03196418   -14.90119531    -0.00006671    -0.00125649  0.26D-05  0.53D-04  3  3     0.03     0.01
   4      1.10404591    -0.03200683   -14.90123795    -0.00004264    -0.00033654  0.96D-06  0.11D-04  4  4     0.03     0.01
   5      1.10571781    -0.03206657   -14.90129769    -0.00005974    -0.00011269  0.29D-06  0.14D-05  5  5     0.04     0.01
   6      1.10590180    -0.03204143   -14.90127255     0.00002514    -0.00000308  0.14D-06  0.24D-06  6  6     0.04     0.01
   7      1.10601594    -0.03204420   -14.90127533    -0.00000277    -0.00000741  0.69D-07  0.51D-07  6  1     0.04     0.01
   8      1.10603273    -0.03204438   -14.90127551    -0.00000018     0.00000026  0.23D-07  0.12D-07  6  2     0.05     0.01
   9      1.10604179    -0.03204438   -14.90127550     0.00000000    -0.00000065  0.38D-08  0.17D-08  6  3     0.05     0.01
  10      1.10603515    -0.03204442   -14.90127554    -0.00000004     0.00000055  0.55D-09  0.38D-09  6  4     0.06     0.01
  11      1.10603224    -0.03204444   -14.90127556    -0.00000002     0.00000017  0.83D-10  0.85D-10  6  5     0.06     0.01
  12      1.10603093    -0.03204444   -14.90127556     0.00000000     0.00000002  0.43D-11  0.16D-10  6  3     0.06     0.01
  13      1.10603081    -0.03204443   -14.90127555     0.00000001    -0.00000004  0.18D-12  0.30D-11  6  6     0.07     0.01
  14      1.10603065    -0.03204443   -14.90127555     0.00000000     0.00000000  0.11D-12  0.66D-12  6  1     0.07     0.01
  15      1.10603060    -0.03204443   -14.90127555    -0.00000000     0.00000001  0.51D-13  0.16D-12  6  2     0.08     0.01
  16      1.10603058    -0.03204443   -14.90127555    -0.00000000     0.00000000  0.11D-13  0.27D-13  6  4     0.08     0.01
  17      1.10603060    -0.03204443   -14.90127555    -0.00000000    -0.00000000  0.45D-15  0.32D-14  6  5     0.08     0.00
  18      1.10603063    -0.03204443   -14.90127555     0.00000000    -0.00000000  0.15D-16  0.49D-15  6  3     0.09     0.00
  19      1.10603064    -0.03204443   -14.90127555     0.00000000    -0.00000000  0.12D-17  0.77D-16  6  6     0.09     0.00
  20      1.10603065    -0.03204443   -14.90127555     0.00000000    -0.00000000  0.20D-17  0.12D-16  6  1     0.10     0.00
  21      1.10603065    -0.03204443   -14.90127555     0.00000000    -0.00000000  0.49D-18  0.28D-17  6  2     0.10     0.00
  22      1.10603065    -0.03204443   -14.90127555     0.00000000    -0.00000000  0.69D-19  0.72D-18  6  4     0.10     0.00
  23      1.10603065    -0.03204443   -14.90127555     0.00000000    -0.00000000  0.38D-19  0.20D-18  6  5     0.10     0.00
  24      1.10603065    -0.03204443   -14.90127555     0.00000000    -0.00000000  0.22D-19  0.49D-19  6  3     0.11     0.00
  25      1.10603065    -0.03204443   -14.90127555     0.00000000    -0.00000000  0.46D-20  0.10D-19  6  6     0.11     0.00
  26      1.10603065    -0.03204443   -14.90127555    -0.00000000     0.00000000  0.49D-21  0.20D-20  6  1     0.11     0.00
  27      1.10603065    -0.03204443   -14.90127555    -0.00000000     0.00000000  0.48D-22  0.32D-21  6  2     0.12     0.00
  28      1.10603065    -0.03204443   -14.90127555    -0.00000000     0.00000000  0.13D-22  0.56D-22  6  4     0.12     0.00
  29      1.10603065    -0.03204443   -14.90127555    -0.00000000     0.00000000  0.94D-24  0.82D-23  6  5     0.12     0.00
  30      1.10603065    -0.03204443   -14.90127555    -0.00000000     0.00000000  0.13D-24  0.18D-23  6  3     0.12     0.00
  31      1.10603065    -0.03204443   -14.90127555    -0.00000000     0.00000000  0.37D-25  0.47D-24  6  6     0.13     0.00

 Norm of t1 vector:      0.02678611      S-energy:    -0.00000000      T1 diagnostic:  0.00773248
                                                                       D1 diagnostic:  0.01892859

 Singles amplitudes (print threshold =  0.000E+00):

         I         SYM. A    A   T(IA)

         1         1         1      0.00000000
         1         1         2     -0.00000000
         1         1         3      0.00001096
         1         1         4     -0.00000776
         1         1         5      0.00000000
         1         1         6      0.00000000
         1         1         7     -0.00027520
         1         1         8      0.00000000
         1         1         9      0.00000000
         1         1        10     -0.00000000
         1         1        11     -0.00000000
         1         1        12      0.00002543
         2         1         1      0.00000000
         2         1         2      0.00000000
         2         1         3      0.01398989
         2         1         4     -0.01013978
         2         1         5     -0.00000000
         2         1         6     -0.00000000
         2         1         7     -0.00723783
         2         1         8     -0.00000000
         2         1         9      0.00000000
         2         1        10      0.00000000
         2         1        11     -0.00000000
         2         1        12     -0.00271295
         3         2         1     -0.00034822
         3         2         2     -0.00000000
         3         2         3      0.00000000
         3         2         4      0.00038319
         3         2         5      0.00000000
         3         2         6     -0.00000000
         3         2         7     -0.00013959
         3         2         8     -0.00031828
         3         2         9      0.00000000
         3         2        10     -0.00000000
         3         2        11     -0.00000000
         3         2        12      0.00000000
         3         2        13     -0.00006291

 Doubles amplitudes (print threshold =  0.000E+00):

         I         J         SYM. A    SYM. B    A         B      T(IJ, AB)

         1         1         1         1         1         1      0.00011190
         1         1         1         1         1         2      0.00000000
         1         1         1         1         1         3     -0.00000000
         1         1         1         1         1         4      0.00000000
         1         1         1         1         1         5      0.00003134
         1         1         1         1         1         6     -0.00008803
         1         1         1         1         1         7     -0.00000000
         1         1         1         1         1         8     -0.00000000
         1         1         1         1         1         9      0.00000000
         1         1         1         1         1        10     -0.00007915
         1         1         1         1         1        11      0.00000190
         1         1         1         1         1        12      0.00000000
         1         1         1         1         2         1      0.00000000
         1         1         1         1         2         2      0.00011190
         1         1         1         1         2         3     -0.00000000
         1         1         1         1         2         4      0.00000000
         1         1         1         1         2         5      0.00008803
         1         1         1         1         2         6      0.00003134
         1         1         1         1         2         7     -0.00000000
         1         1         1         1         2         8      0.00000000
         1         1         1         1         2         9     -0.00000000
         1         1         1         1         2        10     -0.00000190
         1         1         1         1         2        11     -0.00007915
         1         1         1         1         2        12      0.00000000
         1         1         1         1         3         1     -0.00000000
         1         1         1         1         3         2     -0.00000000
         1         1         1         1         3         3     -0.00002666
         1         1         1         1         3         4      0.00013801
         1         1         1         1         3         5      0.00000000
         1         1         1         1         3         6     -0.00000000
         1         1         1         1         3         7     -0.00008209
         1         1         1         1         3         8      0.00000000
         1         1         1         1         3         9      0.00000000
         1         1         1         1         3        10     -0.00000000
         1         1         1         1         3        11     -0.00000000
         1         1         1         1         3        12     -0.00011087
         1         1         1         1         4         1      0.00000000
         1         1         1         1         4         2      0.00000000
         1         1         1         1         4         3      0.00013801
         1         1         1         1         4         4     -0.00039191
         1         1         1         1         4         5     -0.00000000
         1         1         1         1         4         6      0.00000000
         1         1         1         1         4         7      0.00024856
         1         1         1         1         4         8      0.00000000
         1         1         1         1         4         9     -0.00000000
         1         1         1         1         4        10     -0.00000000
         1         1         1         1         4        11      0.00000000
         1         1         1         1         4        12      0.00022991
         1         1         1         1         5         1      0.00003134
         1         1         1         1         5         2      0.00008803
         1         1         1         1         5         3      0.00000000
         1         1         1         1         5         4     -0.00000000
         1         1         1         1         5         5     -0.00061662
         1         1         1         1         5         6      0.00000000
         1         1         1         1         5         7      0.00000000
         1         1         1         1         5         8     -0.00000000
         1         1         1         1         5         9      0.00000000
         1         1         1         1         5        10      0.00005554
         1         1         1         1         5        11      0.00014489
         1         1         1         1         5        12     -0.00000000
         1         1         1         1         6         1     -0.00008803
         1         1         1         1         6         2      0.00003134
         1         1         1         1         6         3     -0.00000000
         1         1         1         1         6         4      0.00000000
         1         1         1         1         6         5      0.00000000
         1         1         1         1         6         6     -0.00061662
         1         1         1         1         6         7     -0.00000000
         1         1         1         1         6         8     -0.00000000
         1         1         1         1         6         9      0.00000000
         1         1         1         1         6        10     -0.00014489
         1         1         1         1         6        11      0.00005554
         1         1         1         1         6        12     -0.00000000
         1         1         1         1         7         1     -0.00000000
         1         1         1         1         7         2     -0.00000000
         1         1         1         1         7         3     -0.00008209
         1         1         1         1         7         4      0.00024856
         1         1         1         1         7         5      0.00000000
         1         1         1         1         7         6     -0.00000000
         1         1         1         1         7         7     -0.00070288
         1         1         1         1         7         8     -0.00000000
         1         1         1         1         7         9     -0.00000000
         1         1         1         1         7        10      0.00000000
         1         1         1         1         7        11      0.00000000
         1         1         1         1         7        12      0.00008999
         1         1         1         1         8         1     -0.00000000
         1         1         1         1         8         2      0.00000000
         1         1         1         1         8         3      0.00000000
         1         1         1         1         8         4      0.00000000
         1         1         1         1         8         5     -0.00000000
         1         1         1         1         8         6     -0.00000000
         1         1         1         1         8         7     -0.00000000
         1         1         1         1         8         8     -0.00000163
         1         1         1         1         8         9      0.00000000
         1         1         1         1         8        10      0.00000000
         1         1         1         1         8        11     -0.00000000
         1         1         1         1         8        12     -0.00000000
         1         1         1         1         9         1      0.00000000
         1         1         1         1         9         2     -0.00000000
         1         1         1         1         9         3      0.00000000
         1         1         1         1         9         4     -0.00000000
         1         1         1         1         9         5      0.00000000
         1         1         1         1         9         6      0.00000000
         1         1         1         1         9         7     -0.00000000
         1         1         1         1         9         8      0.00000000
         1         1         1         1         9         9     -0.00000163
         1         1         1         1         9        10     -0.00000000
         1         1         1         1         9        11      0.00000000
         1         1         1         1         9        12      0.00000000
         1         1         1         1        10         1     -0.00007915
         1         1         1         1        10         2     -0.00000190
         1         1         1         1        10         3     -0.00000000
         1         1         1         1        10         4     -0.00000000
         1         1         1         1        10         5      0.00005554
         1         1         1         1        10         6     -0.00014489
         1         1         1         1        10         7      0.00000000
         1         1         1         1        10         8      0.00000000
         1         1         1         1        10         9     -0.00000000
         1         1         1         1        10        10     -0.00002478
         1         1         1         1        10        11      0.00000000
         1         1         1         1        10        12     -0.00000000
         1         1         1         1        11         1      0.00000190
         1         1         1         1        11         2     -0.00007915
         1         1         1         1        11         3     -0.00000000
         1         1         1         1        11         4      0.00000000
         1         1         1         1        11         5      0.00014489
         1         1         1         1        11         6      0.00005554
         1         1         1         1        11         7      0.00000000
         1         1         1         1        11         8     -0.00000000
         1         1         1         1        11         9      0.00000000
         1         1         1         1        11        10      0.00000000
         1         1         1         1        11        11     -0.00002478
         1         1         1         1        11        12     -0.00000000
         1         1         1         1        12         1      0.00000000
         1         1         1         1        12         2      0.00000000
         1         1         1         1        12         3     -0.00011087
         1         1         1         1        12         4      0.00022991
         1         1         1         1        12         5     -0.00000000
         1         1         1         1        12         6     -0.00000000
         1         1         1         1        12         7      0.00008999
         1         1         1         1        12         8     -0.00000000
         1         1         1         1        12         9      0.00000000
         1         1         1         1        12        10     -0.00000000
         1         1         1         1        12        11     -0.00000000
         1         1         1         1        12        12     -0.00031247
         1         1         2         2         1         1     -0.00029818
         1         1         2         2         1         2      0.00000000
         1         1         2         2         1         3      0.00000000
         1         1         2         2         1         4      0.00048833
         1         1         2         2         1         5      0.00000000
         1         1         2         2         1         6      0.00000000
         1         1         2         2         1         7     -0.00021554
         1         1         2         2         1         8     -0.00035506
         1         1         2         2         1         9     -0.00000000
         1         1         2         2         1        10      0.00000000
         1         1         2         2         1        11      0.00000000
         1         1         2         2         1        12      0.00000000
         1         1         2         2         1        13     -0.00047628
         1         1         2         2         2         1      0.00000000
         1         1         2         2         2         2     -0.00000762
         1         1         2         2         2         3      0.00000000
         1         1         2         2         2         4     -0.00000000
         1         1         2         2         2         5     -0.00008099
         1         1         2         2         2         6     -0.00004130
         1         1         2         2         2         7      0.00000000
         1         1         2         2         2         8     -0.00000000
         1         1         2         2         2         9     -0.00000000
         1         1         2         2         2        10     -0.00000000
         1         1         2         2         2        11     -0.00002933
         1         1         2         2         2        12     -0.00004751
         1         1         2         2         2        13     -0.00000000
         1         1         2         2         3         1      0.00000000
         1         1         2         2         3         2      0.00000000
         1         1         2         2         3         3     -0.00000762
         1         1         2         2         3         4     -0.00000000
         1         1         2         2         3         5     -0.00004130
         1         1         2         2         3         6      0.00008099
         1         1         2         2         3         7     -0.00000000
         1         1         2         2         3         8      0.00000000
         1         1         2         2         3         9      0.00000000
         1         1         2         2         3        10     -0.00000000
         1         1         2         2         3        11      0.00004751
         1         1         2         2         3        12     -0.00002933
         1         1         2         2         3        13      0.00000000
         1         1         2         2         4         1      0.00048833
         1         1         2         2         4         2     -0.00000000
         1         1         2         2         4         3     -0.00000000
         1         1         2         2         4         4     -0.00073718
         1         1         2         2         4         5     -0.00000000
         1         1         2         2         4         6     -0.00000000
         1         1         2         2         4         7      0.00022020
         1         1         2         2         4         8      0.00053959
         1         1         2         2         4         9      0.00000000
         1         1         2         2         4        10     -0.00000000
         1         1         2         2         4        11     -0.00000000
         1         1         2         2         4        12     -0.00000000
         1         1         2         2         4        13      0.00053915
         1         1         2         2         5         1      0.00000000
         1         1         2         2         5         2     -0.00008099
         1         1         2         2         5         3     -0.00004130
         1         1         2         2         5         4     -0.00000000
         1         1         2         2         5         5     -0.00078376
         1         1         2         2         5         6     -0.00000000
         1         1         2         2         5         7      0.00000000
         1         1         2         2         5         8      0.00000000
         1         1         2         2         5         9     -0.00000000
         1         1         2         2         5        10      0.00000000
         1         1         2         2         5        11     -0.00004006
         1         1         2         2         5        12     -0.00049050
         1         1         2         2         5        13      0.00000000
         1         1         2         2         6         1      0.00000000
         1         1         2         2         6         2     -0.00004130
         1         1         2         2         6         3      0.00008099
         1         1         2         2         6         4     -0.00000000
         1         1         2         2         6         5     -0.00000000
         1         1         2         2         6         6     -0.00078376
         1         1         2         2         6         7      0.00000000
         1         1         2         2         6         8     -0.00000000
         1         1         2         2         6         9     -0.00000000
         1         1         2         2         6        10      0.00000000
         1         1         2         2         6        11     -0.00049050
         1         1         2         2         6        12      0.00004006
         1         1         2         2         6        13      0.00000000
         1         1         2         2         7         1     -0.00021554
         1         1         2         2         7         2      0.00000000
         1         1         2         2         7         3     -0.00000000
         1         1         2         2         7         4      0.00022020
         1         1         2         2         7         5      0.00000000
         1         1         2         2         7         6      0.00000000
         1         1         2         2         7         7     -0.00064680
         1         1         2         2         7         8     -0.00003593
         1         1         2         2         7         9     -0.00000000
         1         1         2         2         7        10     -0.00000000
         1         1         2         2         7        11     -0.00000000
         1         1         2         2         7        12      0.00000000
         1         1         2         2         7        13     -0.00117554
         1         1         2         2         8         1     -0.00035506
         1         1         2         2         8         2     -0.00000000
         1         1         2         2         8         3      0.00000000
         1         1         2         2         8         4      0.00053959
         1         1         2         2         8         5      0.00000000
         1         1         2         2         8         6     -0.00000000
         1         1         2         2         8         7     -0.00003593
         1         1         2         2         8         8     -0.00046002
         1         1         2         2         8         9     -0.00000000
         1         1         2         2         8        10     -0.00000000
         1         1         2         2         8        11     -0.00000000
         1         1         2         2         8        12      0.00000000
         1         1         2         2         8        13     -0.00003174
         1         1         2         2         9         1     -0.00000000
         1         1         2         2         9         2     -0.00000000
         1         1         2         2         9         3      0.00000000
         1         1         2         2         9         4      0.00000000
         1         1         2         2         9         5     -0.00000000
         1         1         2         2         9         6     -0.00000000
         1         1         2         2         9         7     -0.00000000
         1         1         2         2         9         8     -0.00000000
         1         1         2         2         9         9     -0.00000572
         1         1         2         2         9        10     -0.00000000
         1         1         2         2         9        11     -0.00000000
         1         1         2         2         9        12     -0.00000000
         1         1         2         2         9        13      0.00000000
         1         1         2         2        10         1      0.00000000
         1         1         2         2        10         2     -0.00000000
         1         1         2         2        10         3     -0.00000000
         1         1         2         2        10         4     -0.00000000
         1         1         2         2        10         5      0.00000000
         1         1         2         2        10         6      0.00000000
         1         1         2         2        10         7     -0.00000000
         1         1         2         2        10         8     -0.00000000
         1         1         2         2        10         9     -0.00000000
         1         1         2         2        10        10     -0.00000572
         1         1         2         2        10        11      0.00000000
         1         1         2         2        10        12     -0.00000000
         1         1         2         2        10        13      0.00000000
         1         1         2         2        11         1      0.00000000
         1         1         2         2        11         2     -0.00002933
         1         1         2         2        11         3      0.00004751
         1         1         2         2        11         4     -0.00000000
         1         1         2         2        11         5     -0.00004006
         1         1         2         2        11         6     -0.00049050
         1         1         2         2        11         7     -0.00000000
         1         1         2         2        11         8     -0.00000000
         1         1         2         2        11         9     -0.00000000
         1         1         2         2        11        10      0.00000000
         1         1         2         2        11        11     -0.00032706
         1         1         2         2        11        12     -0.00000000
         1         1         2         2        11        13     -0.00000000
         1         1         2         2        12         1      0.00000000
         1         1         2         2        12         2     -0.00004751
         1         1         2         2        12         3     -0.00002933
         1         1         2         2        12         4     -0.00000000
         1         1         2         2        12         5     -0.00049050
         1         1         2         2        12         6      0.00004006
         1         1         2         2        12         7      0.00000000
         1         1         2         2        12         8      0.00000000
         1         1         2         2        12         9     -0.00000000
         1         1         2         2        12        10     -0.00000000
         1         1         2         2        12        11     -0.00000000
         1         1         2         2        12        12     -0.00032706
         1         1         2         2        12        13     -0.00000000
         1         1         2         2        13         1     -0.00047628
         1         1         2         2        13         2     -0.00000000
         1         1         2         2        13         3      0.00000000
         1         1         2         2        13         4      0.00053915
         1         1         2         2        13         5      0.00000000
         1         1         2         2        13         6      0.00000000
         1         1         2         2        13         7     -0.00117554
         1         1         2         2        13         8     -0.00003174
         1         1         2         2        13         9      0.00000000
         1         1         2         2        13        10      0.00000000
         1         1         2         2        13        11     -0.00000000
         1         1         2         2        13        12     -0.00000000
         1         1         2         2        13        13     -0.00285212
         2         1         1         1         1         1     -0.00046653
         2         1         1         1         1         2      0.00000000
         2         1         1         1         1         3      0.00000000
         2         1         1         1         1         4     -0.00000000
         2         1         1         1         1         5      0.00039256
         2         1         1         1         1         6     -0.00110270
         2         1         1         1         1         7      0.00000000
         2         1         1         1         1         8     -0.00000000
         2         1         1         1         1         9      0.00000000
         2         1         1         1         1        10     -0.00002314
         2         1         1         1         1        11      0.00000056
         2         1         1         1         1        12     -0.00000000
         2         1         1         1         2         1      0.00000000
         2         1         1         1         2         2     -0.00046653
         2         1         1         1         2         3      0.00000000
         2         1         1         1         2         4     -0.00000000
         2         1         1         1         2         5      0.00110270
         2         1         1         1         2         6      0.00039256
         2         1         1         1         2         7      0.00000000
         2         1         1         1         2         8     -0.00000000
         2         1         1         1         2         9      0.00000000
         2         1         1         1         2        10     -0.00000056
         2         1         1         1         2        11     -0.00002314
         2         1         1         1         2        12      0.00000000
         2         1         1         1         3         1      0.00000000
         2         1         1         1         3         2      0.00000000
         2         1         1         1         3         3     -0.00045466
         2         1         1         1         3         4      0.00091567
         2         1         1         1         3         5      0.00000000
         2         1         1         1         3         6     -0.00000000
         2         1         1         1         3         7     -0.00089301
         2         1         1         1         3         8     -0.00000000
         2         1         1         1         3         9      0.00000000
         2         1         1         1         3        10     -0.00000000
         2         1         1         1         3        11      0.00000000
         2         1         1         1         3        12     -0.00043069
         2         1         1         1         4         1     -0.00000000
         2         1         1         1         4         2     -0.00000000
         2         1         1         1         4         3      0.00066061
         2         1         1         1         4         4     -0.00133670
         2         1         1         1         4         5     -0.00000000
         2         1         1         1         4         6      0.00000000
         2         1         1         1         4         7      0.00134829
         2         1         1         1         4         8      0.00000000
         2         1         1         1         4         9      0.00000000
         2         1         1         1         4        10      0.00000000
         2         1         1         1         4        11     -0.00000000
         2         1         1         1         4        12      0.00072816
         2         1         1         1         5         1      0.00022797
         2         1         1         1         5         2      0.00064037
         2         1         1         1         5         3      0.00000000
         2         1         1         1         5         4     -0.00000000
         2         1         1         1         5         5     -0.00185033
         2         1         1         1         5         6     -0.00000000
         2         1         1         1         5         7      0.00000000
         2         1         1         1         5         8      0.00000000
         2         1         1         1         5         9     -0.00000000
         2         1         1         1         5        10      0.00002746
         2         1         1         1         5        11      0.00007165
         2         1         1         1         5        12      0.00000000
         2         1         1         1         6         1     -0.00064037
         2         1         1         1         6         2      0.00022797
         2         1         1         1         6         3     -0.00000000
         2         1         1         1         6         4      0.00000000
         2         1         1         1         6         5     -0.00000000
         2         1         1         1         6         6     -0.00185033
         2         1         1         1         6         7     -0.00000000
         2         1         1         1         6         8      0.00000000
         2         1         1         1         6         9     -0.00000000
         2         1         1         1         6        10     -0.00007165
         2         1         1         1         6        11      0.00002746
         2         1         1         1         6        12     -0.00000000
         2         1         1         1         7         1      0.00000000
         2         1         1         1         7         2      0.00000000
         2         1         1         1         7         3     -0.00035968
         2         1         1         1         7         4      0.00075905
         2         1         1         1         7         5      0.00000000
         2         1         1         1         7         6     -0.00000000
         2         1         1         1         7         7     -0.00052839
         2         1         1         1         7         8     -0.00000000
         2         1         1         1         7         9     -0.00000000
         2         1         1         1         7        10     -0.00000000
         2         1         1         1         7        11      0.00000000
         2         1         1         1         7        12     -0.00034659
         2         1         1         1         8         1      0.00000000
         2         1         1         1         8         2     -0.00000000
         2         1         1         1         8         3     -0.00000000
         2         1         1         1         8         4      0.00000000
         2         1         1         1         8         5     -0.00000000
         2         1         1         1         8         6      0.00000000
         2         1         1         1         8         7     -0.00000000
         2         1         1         1         8         8     -0.00019064
         2         1         1         1         8         9     -0.00000000
         2         1         1         1         8        10      0.00000000
         2         1         1         1         8        11      0.00000000
         2         1         1         1         8        12     -0.00000000
         2         1         1         1         9         1     -0.00000000
         2         1         1         1         9         2      0.00000000
         2         1         1         1         9         3      0.00000000
         2         1         1         1         9         4     -0.00000000
         2         1         1         1         9         5     -0.00000000
         2         1         1         1         9         6     -0.00000000
         2         1         1         1         9         7     -0.00000000
         2         1         1         1         9         8     -0.00000000
         2         1         1         1         9         9     -0.00019064
         2         1         1         1         9        10     -0.00000000
         2         1         1         1         9        11      0.00000000
         2         1         1         1         9        12     -0.00000000
         2         1         1         1        10         1      0.00024662
         2         1         1         1        10         2      0.00000593
         2         1         1         1        10         3      0.00000000
         2         1         1         1        10         4     -0.00000000
         2         1         1         1        10         5     -0.00017440
         2         1         1         1        10         6      0.00045497
         2         1         1         1        10         7      0.00000000
         2         1         1         1        10         8      0.00000000
         2         1         1         1        10         9     -0.00000000
         2         1         1         1        10        10     -0.00024466
         2         1         1         1        10        11     -0.00000000
         2         1         1         1        10        12      0.00000000
         2         1         1         1        11         1     -0.00000593
         2         1         1         1        11         2      0.00024662
         2         1         1         1        11         3      0.00000000
         2         1         1         1        11         4     -0.00000000
         2         1         1         1        11         5     -0.00045497
         2         1         1         1        11         6     -0.00017440
         2         1         1         1        11         7      0.00000000
         2         1         1         1        11         8      0.00000000
         2         1         1         1        11         9     -0.00000000
         2         1         1         1        11        10     -0.00000000
         2         1         1         1        11        11     -0.00024466
         2         1         1         1        11        12      0.00000000
         2         1         1         1        12         1      0.00000000
         2         1         1         1        12         2      0.00000000
         2         1         1         1        12         3     -0.00041504
         2         1         1         1        12         4      0.00086124
         2         1         1         1        12         5     -0.00000000
         2         1         1         1        12         6      0.00000000
         2         1         1         1        12         7     -0.00089223
         2         1         1         1        12         8     -0.00000000
         2         1         1         1        12         9     -0.00000000
         2         1         1         1        12        10     -0.00000000
         2         1         1         1        12        11      0.00000000
         2         1         1         1        12        12     -0.00060385
         2         1         2         2         1         1      0.00011867
         2         1         2         2         1         2     -0.00000000
         2         1         2         2         1         3     -0.00000000
         2         1         2         2         1         4     -0.00018978
         2         1         2         2         1         5      0.00000000
         2         1         2         2         1         6      0.00000000
         2         1         2         2         1         7     -0.00047942
         2         1         2         2         1         8      0.00034328
         2         1         2         2         1         9      0.00000000
         2         1         2         2         1        10     -0.00000000
         2         1         2         2         1        11      0.00000000
         2         1         2         2         1        12     -0.00000000
         2         1         2         2         1        13     -0.00083192
         2         1         2         2         2         1      0.00000000
         2         1         2         2         2         2     -0.00008567
         2         1         2         2         2         3      0.00000000
         2         1         2         2         2         4     -0.00000000
         2         1         2         2         2         5     -0.00049156
         2         1         2         2         2         6     -0.00025064
         2         1         2         2         2         7     -0.00000000
         2         1         2         2         2         8     -0.00000000
         2         1         2         2         2         9     -0.00000000
         2         1         2         2         2        10      0.00000000
         2         1         2         2         2        11     -0.00014207
         2         1         2         2         2        12     -0.00023015
         2         1         2         2         2        13      0.00000000
         2         1         2         2         3         1     -0.00000000
         2         1         2         2         3         2     -0.00000000
         2         1         2         2         3         3     -0.00008567
         2         1         2         2         3         4      0.00000000
         2         1         2         2         3         5     -0.00025064
         2         1         2         2         3         6      0.00049156
         2         1         2         2         3         7     -0.00000000
         2         1         2         2         3         8      0.00000000
         2         1         2         2         3         9      0.00000000
         2         1         2         2         3        10     -0.00000000
         2         1         2         2         3        11      0.00023015
         2         1         2         2         3        12     -0.00014207
         2         1         2         2         3        13     -0.00000000
         2         1         2         2         4         1     -0.00025983
         2         1         2         2         4         2      0.00000000
         2         1         2         2         4         3      0.00000000
         2         1         2         2         4         4      0.00035408
         2         1         2         2         4         5      0.00000000
         2         1         2         2         4         6     -0.00000000
         2         1         2         2         4         7      0.00029436
         2         1         2         2         4         8     -0.00040040
         2         1         2         2         4         9     -0.00000000
         2         1         2         2         4        10     -0.00000000
         2         1         2         2         4        11     -0.00000000
         2         1         2         2         4        12      0.00000000
         2         1         2         2         4        13      0.00059177
         2         1         2         2         5         1      0.00000000
         2         1         2         2         5         2     -0.00022622
         2         1         2         2         5         3     -0.00011535
         2         1         2         2         5         4     -0.00000000
         2         1         2         2         5         5     -0.00165871
         2         1         2         2         5         6      0.00000000
         2         1         2         2         5         7     -0.00000000
         2         1         2         2         5         8      0.00000000
         2         1         2         2         5         9     -0.00000000
         2         1         2         2         5        10     -0.00000000
         2         1         2         2         5        11     -0.00007333
         2         1         2         2         5        12     -0.00089786
         2         1         2         2         5        13      0.00000000
         2         1         2         2         6         1      0.00000000
         2         1         2         2         6         2     -0.00011535
         2         1         2         2         6         3      0.00022622
         2         1         2         2         6         4     -0.00000000
         2         1         2         2         6         5      0.00000000
         2         1         2         2         6         6     -0.00165871
         2         1         2         2         6         7     -0.00000000
         2         1         2         2         6         8     -0.00000000
         2         1         2         2         6         9      0.00000000
         2         1         2         2         6        10      0.00000000
         2         1         2         2         6        11     -0.00089786
         2         1         2         2         6        12      0.00007333
         2         1         2         2         6        13      0.00000000
         2         1         2         2         7         1     -0.00018505
         2         1         2         2         7         2     -0.00000000
         2         1         2         2         7         3      0.00000000
         2         1         2         2         7         4      0.00017574
         2         1         2         2         7         5     -0.00000000
         2         1         2         2         7         6      0.00000000
         2         1         2         2         7         7     -0.00080710
         2         1         2         2         7         8      0.00015643
         2         1         2         2         7         9     -0.00000000
         2         1         2         2         7        10     -0.00000000
         2         1         2         2         7        11     -0.00000000
         2         1         2         2         7        12      0.00000000
         2         1         2         2         7        13     -0.00124988
         2         1         2         2         8         1      0.00033256
         2         1         2         2         8         2      0.00000000
         2         1         2         2         8         3     -0.00000000
         2         1         2         2         8         4     -0.00038592
         2         1         2         2         8         5     -0.00000000
         2         1         2         2         8         6      0.00000000
         2         1         2         2         8         7      0.00035993
         2         1         2         2         8         8      0.00014967
         2         1         2         2         8         9     -0.00000000
         2         1         2         2         8        10     -0.00000000
         2         1         2         2         8        11      0.00000000
         2         1         2         2         8        12     -0.00000000
         2         1         2         2         8        13      0.00030272
         2         1         2         2         9         1      0.00000000
         2         1         2         2         9         2      0.00000000
         2         1         2         2         9         3     -0.00000000
         2         1         2         2         9         4     -0.00000000
         2         1         2         2         9         5      0.00000000
         2         1         2         2         9         6      0.00000000
         2         1         2         2         9         7     -0.00000000
         2         1         2         2         9         8      0.00000000
         2         1         2         2         9         9     -0.00014814
         2         1         2         2         9        10     -0.00000000
         2         1         2         2         9        11      0.00000000
         2         1         2         2         9        12      0.00000000
         2         1         2         2         9        13     -0.00000000
         2         1         2         2        10         1     -0.00000000
         2         1         2         2        10         2      0.00000000
         2         1         2         2        10         3     -0.00000000
         2         1         2         2        10         4     -0.00000000
         2         1         2         2        10         5     -0.00000000
         2         1         2         2        10         6      0.00000000
         2         1         2         2        10         7     -0.00000000
         2         1         2         2        10         8     -0.00000000
         2         1         2         2        10         9     -0.00000000
         2         1         2         2        10        10     -0.00014814
         2         1         2         2        10        11      0.00000000
         2         1         2         2        10        12     -0.00000000
         2         1         2         2        10        13      0.00000000
         2         1         2         2        11         1     -0.00000000
         2         1         2         2        11         2     -0.00005866
         2         1         2         2        11         3      0.00009504
         2         1         2         2        11         4      0.00000000
         2         1         2         2        11         5     -0.00006412
         2         1         2         2        11         6     -0.00078514
         2         1         2         2        11         7     -0.00000000
         2         1         2         2        11         8      0.00000000
         2         1         2         2        11         9     -0.00000000
         2         1         2         2        11        10      0.00000000
         2         1         2         2        11        11     -0.00059534
         2         1         2         2        11        12      0.00000000
         2         1         2         2        11        13     -0.00000000
         2         1         2         2        12         1      0.00000000
         2         1         2         2        12         2     -0.00009504
         2         1         2         2        12         3     -0.00005866
         2         1         2         2        12         4     -0.00000000
         2         1         2         2        12         5     -0.00078514
         2         1         2         2        12         6      0.00006412
         2         1         2         2        12         7      0.00000000
         2         1         2         2        12         8      0.00000000
         2         1         2         2        12         9     -0.00000000
         2         1         2         2        12        10      0.00000000
         2         1         2         2        12        11      0.00000000
         2         1         2         2        12        12     -0.00059534
         2         1         2         2        12        13      0.00000000
         2         1         2         2        13         1     -0.00019820
         2         1         2         2        13         2      0.00000000
         2         1         2         2        13         3      0.00000000
         2         1         2         2        13         4      0.00016315
         2         1         2         2        13         5      0.00000000
         2         1         2         2        13         6      0.00000000
         2         1         2         2        13         7     -0.00089763
         2         1         2         2        13         8      0.00005583
         2         1         2         2        13         9      0.00000000
         2         1         2         2        13        10     -0.00000000
         2         1         2         2        13        11     -0.00000000
         2         1         2         2        13        12      0.00000000
         2         1         2         2        13        13     -0.00128958
         2         2         1         1         1         1     -0.11873907
         2         2         1         1         1         2     -0.00000000
         2         2         1         1         1         3      0.00000000
         2         2         1         1         1         4     -0.00000000
         2         2         1         1         1         5      0.02817214
         2         2         1         1         1         6     -0.07913517
         2         2         1         1         1         7      0.00000000
         2         2         1         1         1         8      0.00000000
         2         2         1         1         1         9     -0.00000000
         2         2         1         1         1        10      0.03196139
         2         2         1         1         1        11     -0.00076849
         2         2         1         1         1        12      0.00000000
         2         2         1         1         2         1     -0.00000000
         2         2         1         1         2         2     -0.11873907
         2         2         1         1         2         3      0.00000000
         2         2         1         1         2         4     -0.00000000
         2         2         1         1         2         5      0.07913517
         2         2         1         1         2         6      0.02817214
         2         2         1         1         2         7      0.00000000
         2         2         1         1         2         8     -0.00000000
         2         2         1         1         2         9      0.00000000
         2         2         1         1         2        10      0.00076849
         2         2         1         1         2        11      0.03196139
         2         2         1         1         2        12      0.00000000
         2         2         1         1         3         1      0.00000000
         2         2         1         1         3         2      0.00000000
         2         2         1         1         3         3     -0.04945476
         2         2         1         1         3         4      0.05626670
         2         2         1         1         3         5     -0.00000000
         2         2         1         1         3         6     -0.00000000
         2         2         1         1         3         7     -0.00728369
         2         2         1         1         3         8     -0.00000000
         2         2         1         1         3         9      0.00000000
         2         2         1         1         3        10      0.00000000
         2         2         1         1         3        11      0.00000000
         2         2         1         1         3        12     -0.01902233
         2         2         1         1         4         1     -0.00000000
         2         2         1         1         4         2     -0.00000000
         2         2         1         1         4         3      0.05626670
         2         2         1         1         4         4     -0.07085483
         2         2         1         1         4         5      0.00000000
         2         2         1         1         4         6     -0.00000000
         2         2         1         1         4         7      0.00439672
         2         2         1         1         4         8      0.00000000
         2         2         1         1         4         9      0.00000000
         2         2         1         1         4        10      0.00000000
         2         2         1         1         4        11     -0.00000000
         2         2         1         1         4        12      0.02546720
         2         2         1         1         5         1      0.02817214
         2         2         1         1         5         2      0.07913517
         2         2         1         1         5         3     -0.00000000
         2         2         1         1         5         4      0.00000000
         2         2         1         1         5         5     -0.06195803
         2         2         1         1         5         6      0.00000000
         2         2         1         1         5         7     -0.00000000
         2         2         1         1         5         8      0.00000000
         2         2         1         1         5         9     -0.00000000
         2         2         1         1         5        10     -0.00903052
         2         2         1         1         5        11     -0.02355835
         2         2         1         1         5        12      0.00000000
         2         2         1         1         6         1     -0.07913517
         2         2         1         1         6         2      0.02817214
         2         2         1         1         6         3     -0.00000000
         2         2         1         1         6         4     -0.00000000
         2         2         1         1         6         5      0.00000000
         2         2         1         1         6         6     -0.06195803
         2         2         1         1         6         7      0.00000000
         2         2         1         1         6         8      0.00000000
         2         2         1         1         6         9     -0.00000000
         2         2         1         1         6        10      0.02355835
         2         2         1         1         6        11     -0.00903052
         2         2         1         1         6        12     -0.00000000
         2         2         1         1         7         1      0.00000000
         2         2         1         1         7         2      0.00000000
         2         2         1         1         7         3     -0.00728369
         2         2         1         1         7         4      0.00439672
         2         2         1         1         7         5     -0.00000000
         2         2         1         1         7         6      0.00000000
         2         2         1         1         7         7     -0.00459892
         2         2         1         1         7         8     -0.00000000
         2         2         1         1         7         9      0.00000000
         2         2         1         1         7        10     -0.00000000
         2         2         1         1         7        11     -0.00000000
         2         2         1         1         7        12     -0.00182685
         2         2         1         1         8         1      0.00000000
         2         2         1         1         8         2     -0.00000000
         2         2         1         1         8         3     -0.00000000
         2         2         1         1         8         4      0.00000000
         2         2         1         1         8         5      0.00000000
         2         2         1         1         8         6      0.00000000
         2         2         1         1         8         7     -0.00000000
         2         2         1         1         8         8     -0.00635639
         2         2         1         1         8         9     -0.00000000
         2         2         1         1         8        10     -0.00000000
         2         2         1         1         8        11     -0.00000000
         2         2         1         1         8        12     -0.00000000
         2         2         1         1         9         1     -0.00000000
         2         2         1         1         9         2      0.00000000
         2         2         1         1         9         3      0.00000000
         2         2         1         1         9         4      0.00000000
         2         2         1         1         9         5     -0.00000000
         2         2         1         1         9         6     -0.00000000
         2         2         1         1         9         7      0.00000000
         2         2         1         1         9         8     -0.00000000
         2         2         1         1         9         9     -0.00635639
         2         2         1         1         9        10      0.00000000
         2         2         1         1         9        11     -0.00000000
         2         2         1         1         9        12     -0.00000000
         2         2         1         1        10         1      0.03196139
         2         2         1         1        10         2      0.00076849
         2         2         1         1        10         3      0.00000000
         2         2         1         1        10         4      0.00000000
         2         2         1         1        10         5     -0.00903052
         2         2         1         1        10         6      0.02355835
         2         2         1         1        10         7     -0.00000000
         2         2         1         1        10         8     -0.00000000
         2         2         1         1        10         9      0.00000000
         2         2         1         1        10        10     -0.01353232
         2         2         1         1        10        11      0.00000000
         2         2         1         1        10        12      0.00000000
         2         2         1         1        11         1     -0.00076849
         2         2         1         1        11         2      0.03196139
         2         2         1         1        11         3      0.00000000
         2         2         1         1        11         4     -0.00000000
         2         2         1         1        11         5     -0.02355835
         2         2         1         1        11         6     -0.00903052
         2         2         1         1        11         7     -0.00000000
         2         2         1         1        11         8     -0.00000000
         2         2         1         1        11         9     -0.00000000
         2         2         1         1        11        10      0.00000000
         2         2         1         1        11        11     -0.01353232
         2         2         1         1        11        12      0.00000000
         2         2         1         1        12         1      0.00000000
         2         2         1         1        12         2      0.00000000
         2         2         1         1        12         3     -0.01902233
[...]
         3         2         1         2         7        11      0.00000000
         3         2         1         2         7        12      0.00000000
         3         2         1         2         7        13     -0.00071577
         3         2         1         2         8         1     -0.00000000
         3         2         1         2         8         2      0.00000000
         3         2         1         2         8         3      0.00000000
         3         2         1         2         8         4      0.00000000
         3         2         1         2         8         5      0.00000000
         3         2         1         2         8         6     -0.00000000
         3         2         1         2         8         7     -0.00000000
         3         2         1         2         8         8     -0.00000000
         3         2         1         2         8         9     -0.00013469
         3         2         1         2         8        10      0.00000451
         3         2         1         2         8        11     -0.00000000
         3         2         1         2         8        12      0.00000000
         3         2         1         2         8        13     -0.00000000
         3         2         1         2         9         1      0.00000000
         3         2         1         2         9         2      0.00000000
         3         2         1         2         9         3     -0.00000000
         3         2         1         2         9         4      0.00000000
         3         2         1         2         9         5     -0.00000000
         3         2         1         2         9         6      0.00000000
         3         2         1         2         9         7      0.00000000
         3         2         1         2         9         8      0.00000000
         3         2         1         2         9         9     -0.00000451
         3         2         1         2         9        10     -0.00013469
         3         2         1         2         9        11      0.00000000
         3         2         1         2         9        12     -0.00000000
         3         2         1         2         9        13     -0.00000000
         3         2         1         2        10         1     -0.00000000
         3         2         1         2        10         2     -0.00009276
         3         2         1         2        10         3      0.00006451
         3         2         1         2        10         4      0.00000000
         3         2         1         2        10         5     -0.00013798
         3         2         1         2        10         6     -0.00025770
         3         2         1         2        10         7     -0.00000000
         3         2         1         2        10         8      0.00000000
         3         2         1         2        10         9     -0.00000000
         3         2         1         2        10        10      0.00000000
         3         2         1         2        10        11     -0.00000104
         3         2         1         2        10        12     -0.00000045
         3         2         1         2        10        13     -0.00000000
         3         2         1         2        11         1      0.00000000
         3         2         1         2        11         2      0.00006451
         3         2         1         2        11         3      0.00009276
         3         2         1         2        11         4     -0.00000000
         3         2         1         2        11         5      0.00025770
         3         2         1         2        11         6     -0.00013798
         3         2         1         2        11         7      0.00000000
         3         2         1         2        11         8      0.00000000
         3         2         1         2        11         9     -0.00000000
         3         2         1         2        11        10      0.00000000
         3         2         1         2        11        11     -0.00000045
         3         2         1         2        11        12      0.00000104
         3         2         1         2        11        13      0.00000000
         3         2         1         2        12         1     -0.00034946
         3         2         1         2        12         2     -0.00000000
         3         2         1         2        12         3     -0.00000000
         3         2         1         2        12         4      0.00036377
         3         2         1         2        12         5     -0.00000000
         3         2         1         2        12         6      0.00000000
         3         2         1         2        12         7     -0.00021225
         3         2         1         2        12         8     -0.00022114
         3         2         1         2        12         9     -0.00000000
         3         2         1         2        12        10     -0.00000000
         3         2         1         2        12        11     -0.00000000
         3         2         1         2        12        12     -0.00000000
         3         2         1         2        12        13     -0.00034925
         3         2         2         1         1         1     -0.00000000
         3         2         2         1         1         2      0.00000000
         3         2         2         1         1         3     -0.00033048
         3         2         2         1         1         4      0.00054122
         3         2         2         1         1         5      0.00000000
         3         2         2         1         1         6     -0.00000000
         3         2         2         1         1         7      0.00000959
         3         2         2         1         1         8     -0.00000000
         3         2         2         1         1         9      0.00000000
         3         2         2         1         1        10     -0.00000000
         3         2         2         1         1        11      0.00000000
         3         2         2         1         1        12     -0.00043976
         3         2         2         1         2         1     -0.00013491
         3         2         2         1         2         2      0.00008909
         3         2         2         1         2         3      0.00000000
         3         2         2         1         2         4      0.00000000
         3         2         2         1         2         5     -0.00006510
         3         2         2         1         2         6     -0.00026417
         3         2         2         1         2         7      0.00000000
         3         2         2         1         2         8      0.00000000
         3         2         2         1         2         9     -0.00000000
         3         2         2         1         2        10      0.00003405
         3         2         2         1         2        11     -0.00002368
         3         2         2         1         2        12     -0.00000000
         3         2         2         1         3         1      0.00008909
         3         2         2         1         3         2      0.00013491
         3         2         2         1         3         3      0.00000000
         3         2         2         1         3         4     -0.00000000
         3         2         2         1         3         5     -0.00026417
         3         2         2         1         3         6      0.00006510
         3         2         2         1         3         7      0.00000000
         3         2         2         1         3         8      0.00000000
         3         2         2         1         3         9     -0.00000000
         3         2         2         1         3        10     -0.00002368
         3         2         2         1         3        11     -0.00003405
         3         2         2         1         3        12      0.00000000
         3         2         2         1         4         1      0.00000000
         3         2         2         1         4         2     -0.00000000
         3         2         2         1         4         3      0.00032281
         3         2         2         1         4         4     -0.00053134
         3         2         2         1         4         5     -0.00000000
         3         2         2         1         4         6      0.00000000
         3         2         2         1         4         7     -0.00005923
         3         2         2         1         4         8      0.00000000
         3         2         2         1         4         9      0.00000000
         3         2         2         1         4        10      0.00000000
         3         2         2         1         4        11     -0.00000000
         3         2         2         1         4        12      0.00045943
         3         2         2         1         5         1     -0.00054337
         3         2         2         1         5         2      0.00095870
         3         2         2         1         5         3      0.00000000
         3         2         2         1         5         4     -0.00000000
         3         2         2         1         5         5     -0.00120100
         3         2         2         1         5         6     -0.00138840
         3         2         2         1         5         7      0.00000000
         3         2         2         1         5         8      0.00000000
         3         2         2         1         5         9     -0.00000000
         3         2         2         1         5        10      0.00014754
         3         2         2         1         5        11     -0.00027555
         3         2         2         1         5        12     -0.00000000
         3         2         2         1         6         1     -0.00095870
         3         2         2         1         6         2     -0.00054337
         3         2         2         1         6         3      0.00000000
         3         2         2         1         6         4      0.00000000
         3         2         2         1         6         5      0.00138840
         3         2         2         1         6         6     -0.00120100
         3         2         2         1         6         7      0.00000000
         3         2         2         1         6         8      0.00000000
         3         2         2         1         6         9      0.00000000
         3         2         2         1         6        10      0.00027555
         3         2         2         1         6        11      0.00014754
         3         2         2         1         6        12      0.00000000
         3         2         2         1         7         1     -0.00000000
         3         2         2         1         7         2      0.00000000
         3         2         2         1         7         3     -0.00100747
         3         2         2         1         7         4      0.00150146
         3         2         2         1         7         5      0.00000000
         3         2         2         1         7         6     -0.00000000
         3         2         2         1         7         7     -0.00077400
         3         2         2         1         7         8     -0.00000000
         3         2         2         1         7         9      0.00000000
         3         2         2         1         7        10      0.00000000
         3         2         2         1         7        11      0.00000000
         3         2         2         1         7        12     -0.00092299
         3         2         2         1         8         1      0.00000000
         3         2         2         1         8         2     -0.00000000
         3         2         2         1         8         3      0.00008642
         3         2         2         1         8         4     -0.00001813
         3         2         2         1         8         5      0.00000000
         3         2         2         1         8         6      0.00000000
         3         2         2         1         8         7      0.00034872
         3         2         2         1         8         8     -0.00000000
         3         2         2         1         8         9      0.00000000
         3         2         2         1         8        10     -0.00000000
         3         2         2         1         8        11     -0.00000000
         3         2         2         1         8        12     -0.00018545
         3         2         2         1         9         1     -0.00000000
         3         2         2         1         9         2      0.00000000
         3         2         2         1         9         3      0.00000000
         3         2         2         1         9         4     -0.00000000
         3         2         2         1         9         5     -0.00000000
         3         2         2         1         9         6     -0.00000000
         3         2         2         1         9         7      0.00000000
         3         2         2         1         9         8     -0.00018362
         3         2         2         1         9         9     -0.00000615
         3         2         2         1         9        10     -0.00000000
         3         2         2         1         9        11     -0.00000000
         3         2         2         1         9        12     -0.00000000
         3         2         2         1        10         1      0.00000000
         3         2         2         1        10         2     -0.00000000
         3         2         2         1        10         3      0.00000000
         3         2         2         1        10         4     -0.00000000
         3         2         2         1        10         5      0.00000000
         3         2         2         1        10         6      0.00000000
         3         2         2         1        10         7      0.00000000
         3         2         2         1        10         8      0.00000615
         3         2         2         1        10         9     -0.00018362
         3         2         2         1        10        10      0.00000000
         3         2         2         1        10        11     -0.00000000
         3         2         2         1        10        12     -0.00000000
         3         2         2         1        11         1     -0.00059431
         3         2         2         1        11         2     -0.00027555
         3         2         2         1        11         3     -0.00000000
         3         2         2         1        11         4      0.00000000
         3         2         2         1        11         5      0.00079605
         3         2         2         1        11         6     -0.00081090
         3         2         2         1        11         7     -0.00000000
         3         2         2         1        11         8      0.00000000
         3         2         2         1        11         9      0.00000000
         3         2         2         1        11        10      0.00036629
         3         2         2         1        11        11      0.00015925
         3         2         2         1        11        12     -0.00000000
         3         2         2         1        12         1     -0.00027555
         3         2         2         1        12         2      0.00059431
         3         2         2         1        12         3      0.00000000
         3         2         2         1        12         4     -0.00000000
         3         2         2         1        12         5     -0.00081090
         3         2         2         1        12         6     -0.00079605
         3         2         2         1        12         7      0.00000000
         3         2         2         1        12         8      0.00000000
         3         2         2         1        12         9     -0.00000000
         3         2         2         1        12        10      0.00015925
         3         2         2         1        12        11     -0.00036629
         3         2         2         1        12        12     -0.00000000
         3         2         2         1        13         1     -0.00000000
         3         2         2         1        13         2      0.00000000
         3         2         2         1        13         3     -0.00150679
         3         2         2         1        13         4      0.00226008
         3         2         2         1        13         5      0.00000000
         3         2         2         1        13         6     -0.00000000
         3         2         2         1        13         7     -0.00128423
         3         2         2         1        13         8     -0.00000000
         3         2         2         1        13         9      0.00000000
         3         2         2         1        13        10      0.00000000
         3         2         2         1        13        11      0.00000000
         3         2         2         1        13        12     -0.00158440


 RESULTS
 =======

  Reference energy                    -14.869231121713

  Correlated core orbitals:             1.1       1.2
  Orbital energies:                    -2.4475   -2.4472

  CCSD core-core energy                -0.000390525651
  CCSD core-valence energy             -0.000568785965
  CCSD valence correlation energy      -0.031085116603

  CCSD singlet pair energy             -0.031886919786
  CCSD triplet pair energy             -0.000157506698
  CCSD correlation energy              -0.032044428219

 !CCSD total energy                   -14.901275549932

 Timing summary (sec):

 STEP                 CPU(USER)    SYS     CPU(TOT)    WALL
 CCSD iterations         0.14      0.03      0.17      0.16

 Program statistics:

 Available memory in ccsd:                39999164
 Min. memory needed in ccsd:                 10373
 Max. memory used in ccsd:                   11100
 Max. memory used in cckext:                 43133 (31 integral passes)



 **********************************************************************************************************************************
 DATASETS  * FILE   NREC   LENGTH (MB)   RECORD NAMES
              1      20       30.18       500      700      610      900      950      970     1000      129      960     1100   
                                          VAR     GEOM    BASINP   SYMINP    ZMAT    AOBASIS   BASIS     P2S    ABASIS      S 
                                         1400     1410     1200     1210     1080     1600     1650     1300     1700     1380   
                                           T        V       H0       H01     AOSYM     SMH    MOLCAS    ERIS     OPER     JKOP   

              3       5       14.78       500      610      700     1000     2100   
                                          VAR    BASINP    GEOM     BASIS     RHF  

 PROGRAMS   *        TOTAL      CCSD       INT   RESTART
 CPU TIMES  *         0.50      0.21      0.17      0.02
 REAL TIME  *         0.75 SEC
 DISK USED  *        49.46 MB
 **********************************************************************************************************************************
 Molecular orbitals read from record     2100.3  Type=RHF/CANONICAL (state 1.1)
 Occupation numbers read from record     2100.3  Type=RHF/RHF (state 1.1)
 Orbital energies read from record       2100.3  Type=RHF/CANONICAL (state 1.1)
 Redundancy group numbers read from rec  2100.3  Type=RHF/RHF (state 1.1)

 CCSD/cc-pVDZ energy=    -14.901275549932

            CCSD
    -14.90127555
 **********************************************************************************************************************************
 Molpro calculation terminated
