
 Primary working directories    : /scr/yuriaoto/job.023241/molpro.ky3iVNo9dc
 Secondary working directories  : /scr/yuriaoto/job.023241/molpro.ky3iVNo9dc
 Wavefunction directory         : /scr/yuriaoto/job.023241/
 Main file repository           : /scr/yuriaoto/job.023241/molpro.ky3iVNo9dc/

 id        : yuriaoto

 Nodes             nprocs
 t-rex.ufabc.int.br    1

 Using customized tuning parameters: mindgm=8; mindgv=16; mindgc=1; mindgr=1; noblas=0; minvec=7
 default implementation of scratch files=df  


 Variables initialized (933), CPU time= 0.01 sec
 ***,
 memory,40,m
 gprint,orbital,basis,civector
 gthresh,thrprint=0,printci=0.0
 file,3,wfu.dat,old
 
 {ccsd,CC_NORM_MAX=10.0
 thresh,printci=0.0,ENERGY=1.0E-10,COEFF=1.0E-12
 print,ref=1
 core,0
 wf,6,1,0;
 }
 
 Commands  initialized (760), CPU time= 0.01 sec, 617 directives.
 Default parameters read. Elapsed time= 0.06 sec

 Checking input...
 Passed
1


                                         ***  PROGRAM SYSTEM MOLPRO  ***
                                       Copyright, TTI GmbH Stuttgart, 2015
                                    Version 2019.2 linked Abr  7 2019 15:10:35


 **********************************************************************************************************************************
 LABEL *                                                                                 
  64 bit serial version                                                                  DATE: 30-May-20          TIME: 20:14:12  
 **********************************************************************************************************************************

 SHA1:             3a8a58c585c929645742fb5a1b7541a4ad1da699
 **********************************************************************************************************************************


 THRESHOLDS:

 ZERO    =  1.00D-12  ONEINT  =  1.00D-12  TWOINT  =  1.00D-11  PREFAC  =  1.00D-14  XXXXXX  =  1.00D-09  EORDER  =  1.00D-04
 ENERGY  =  0.00D+00  ETEST   =  0.00D+00  EDENS   =  0.00D+00  THRDEDEF=  1.00D-06  GRADIENT=  1.00D-02  STEP    =  1.00D-03
 ORBITAL =  1.00D-05  CIVEC   =  1.00D-05  COEFF   =  1.00D-04  PRINTCI =  0.00D+00  PUNCHCI =  9.90D+01  OPTGRAD =  3.00D-04
 OPTENERG=  1.00D-06  OPTSTEP =  3.00D-04  THRGRAD =  1.00D-10  COMPRESS=  1.00D-11  VARMIN  =  1.00D-07  VARMAX  =  1.00D-03
 THRDOUB =  0.00D+00  THRDIV  =  1.00D-05  THRRED  =  1.00D-07  THRPSP  =  1.00D+00  THRDC   =  1.00D-10  THRCS   =  1.00D-10
 THRNRM  =  1.00D-08  THREQ   =  0.00D+00  THRDE   =  1.00D+00  THRREF  =  1.00D-05  SPARFAC =  1.00D+00  THRDLP  =  1.00D-07
 THRDIA  =  1.00D-10  THRDLS  =  1.00D-07  THRGPS  =  0.00D+00  THRKEX  =  0.00D+00  THRDIS  =  2.00D-01  THRVAR  =  1.00D-10
 THRLOC  =  1.00D-06  THRGAP  =  1.00D-06  THRLOCT = -1.00D+00  THRGAPT = -1.00D+00  THRORB  =  1.00D-06  THRMLTP =  0.00D+00
 THRCPQCI=  1.00D-10  KEXTA   =  0.00D+00  THRCOARS=  0.00D+00  SYMTOL  =  1.00D-06  GRADTOL =  1.00D-06  THROVL  =  1.00D-08
 THRORTH =  1.00D-08  GRID    =  1.00D-06  GRIDMAX =  1.00D-03  DTMAX   =  0.00D+00  THROCCDE=  1.00D-01  THROCCDE=  1.00D-01
 THRPRINT=  0.00D+00


 Variable memory set to   40000000 words,  buffer space 



 Permanent file  3  wfu.dat  assigned.  Implementation=df    Size= 14.08 MB


 PROGRAM * RESTART 


 Reading variables from file 3

 _FNUC           =      0.00000000
 _BASIS          =    STO-3G
 _NELEC          =      6.00000000
 _PROGRAM        =    RHF-SCF
 _DMX            =      0.00000000
 _DMY            =     -0.00000000
 _DMZ            =      0.00000000
 _DMX_SCF        =      0.00000000
 _DMY_SCF        =     -0.00000000
 _DMZ_SCF        =      0.00000000
 _HOMO           =      3.10000000
 _EHOMO          =     -0.15007102
 _LUMO           =      4.10000000
 _ELUMO          =      0.08336193
 _ENERGY         =    -14.63864283
 _ENERGY_METHOD  =    RHF
 _ENERGY_BASIS   =    STO-3G
 _ENUC           =      1.80000000
 _EPS1(1:10)     =     -2.32975138    -2.32973347    -0.15007102     0.08336193     0.13305715     0.13305715
                        0.15828123     0.24181392     0.24181392     0.47434817
 _IPROC_MPP      =      0.00000000
 _IPROC_MPPX     =      0.00000000
 _ORBITAL        =   2100.30000000
 _STATUS         =      1.00000000
 _DATE           =    21-Oct-19
 _LASTORB        =    RHF
 _OUTPUT         =    /scr/yuriaoto/job.022392/RHF.xml
 _PGROUP         =    C1  
 _TIME           =    09:48:43
 R               =      5.00000000

 Geometry written to block  1 of record 700


 **********************************************************************************************************************************
 DATASETS  * FILE   NREC   LENGTH (MB)   RECORD NAMES
              3       5       14.77       500      610      700     1000     2100   
                                          VAR    BASINP    GEOM     BASIS     RHF  

 PROGRAMS   *        TOTAL   RESTART
 CPU TIMES  *         0.14      0.01
 REAL TIME  *         0.18 SEC
 DISK USED  *        26.84 MB
 **********************************************************************************************************************************


 Recomputing integrals since basis changed


 Using spherical harmonics

 Library entry LI     S STO-3G               selected for orbital group  1
 Library entry LI     P STO-3G               selected for orbital group  1


 PROGRAM * SEWARD (Integral evaluation for generally contracted gaussian basis sets)     Author: Roland Lindh, 1990

 Geometry written to block  1 of record 700

 Orientation using atomic masses  
 Molecule type: Linear
 Rotational constants:      20.8009354     20.8009354      0.0000000 GHz  (calculated with average atomic masses)

 Point group  C1  



 ATOMIC COORDINATES

 NR  ATOM    CHARGE       X              Y              Z

   1  LI1     3.00    0.000000000    0.000000000   -2.500000000
   2  LI2     3.00    0.000000000    0.000000000    2.500000000

 Bond lengths in Bohr (Angstrom)

 1-2  5.000000000
     ( 2.645886055)


 BASIS DATA

   Nr Sym  Nuc  Type         Exponents   Contraction coefficients

    1.1 A     1  1s          16.119575     0.154329
                              2.936201     0.535328
                              0.794651     0.444635
    2.1 A     1  1s           0.636290    -0.099967
                              0.147860     0.399513
                              0.048089     0.700115
    3.1 A     1  2px          0.636290     0.155916
                              0.147860     0.607684
                              0.048089     0.391957
    4.1 A     1  2py          0.636290     0.155916
                              0.147860     0.607684
                              0.048089     0.391957
    5.1 A     1  2pz          0.636290     0.155916
                              0.147860     0.607684
                              0.048089     0.391957
    6.1 A     2  1s          16.119575     0.154329
                              2.936201     0.535328
                              0.794651     0.444635
    7.1 A     2  1s           0.636290    -0.099967
                              0.147860     0.399513
                              0.048089     0.700115
    8.1 A     2  2px          0.636290     0.155916
                              0.147860     0.607684
                              0.048089     0.391957
    9.1 A     2  2py          0.636290     0.155916
                              0.147860     0.607684
                              0.048089     0.391957
   10.1 A     2  2pz          0.636290     0.155916
                              0.147860     0.607684
                              0.048089     0.391957

 NUCLEAR CHARGE:                    6
 NUMBER OF PRIMITIVE AOS:          30
 NUMBER OF SYMMETRY AOS:           30
 NUMBER OF CONTRACTIONS:           10   (   10A   )
 NUMBER OF CORE ORBITALS:           2   (    2A   )
 NUMBER OF VALENCE ORBITALS:        8   (    8A   )


 NUCLEAR REPULSION ENERGY    1.80000000

 EXTRA SYMMETRY OF AOS IN SYMMETRY 1:   1 1 2 3 1 1 1 2 3 1

 Eigenvalues of metric

         1 0.155E+00 0.713E+00 0.713E+00 0.805E+00 0.846E+00 0.104E+01 0.123E+01 0.129E+01


 Contracted 2-electron integrals neglected if value below      1.0D-11
 AO integral compression algorithm  1   Integral accuracy      1.0D-11

     0.262 MB (compressed) written to integral file ( 65.1%)


 NUMBER OF SORTED TWO-ELECTRON INTEGRALS:       1540.     BUFFER LENGTH:  32768
 NUMBER OF SEGMENTS:   1  SEGMENT LENGTH:       1540      RECORD LENGTH: 524288

 Memory used in sort:       0.56 MW

 SORT1 READ        2389. AND WROTE         512. INTEGRALS IN      1 RECORDS. CPU TIME:     0.00 SEC, REAL TIME:     0.00 SEC
 SORT2 READ         512. AND WROTE        1540. INTEGRALS IN      1 RECORDS. CPU TIME:     0.00 SEC, REAL TIME:     0.01 SEC

 FILE SIZES:   FILE 1:    30.2 MBYTE,  FILE 4:     4.2 MBYTE,   TOTAL:     34.4 MBYTE

 OPERATOR DM      FOR CENTER  0  COORDINATES:    0.000000    0.000000    0.000000


 **********************************************************************************************************************************
 DATASETS  * FILE   NREC   LENGTH (MB)   RECORD NAMES
              1      19       29.95       500      700      610      900      950      970     1000      129      960     1100   
                                          VAR     GEOM    BASINP   SYMINP    ZMAT    AOBASIS   BASIS     P2S    ABASIS      S 
                                         1400     1410     1200     1210     1080     1600     1650     1300     1700   
                                           T        V       H0       H01     AOSYM     SMH    MOLCAS    ERIS     OPER   

              3       5       14.77       500      610      700     1000     2100   
                                          VAR    BASINP    GEOM     BASIS     RHF  

 PROGRAMS   *        TOTAL       INT   RESTART
 CPU TIMES  *         0.26      0.12      0.01
 REAL TIME  *         0.41 SEC
 DISK USED  *        49.42 MB
 **********************************************************************************************************************************


 PROGRAM * CCSD (Closed-shell coupled cluster)     Authors: C. Hampel, H.-J. Werner, 1991, M. Deegan, P.J. Knowles, 1992


 Input parameters for THRESH:

 ENERGY   =    1.00D-10
 COEFF    =    1.00D-12
 PRINTCI  =    0.000000
 THRPRINT =    0.000000

 Convergence thresholds:  THRVAR = 1.00D-24  THRDEN = 1.00D-10

 Number of closed-shell orbitals:   3 (   3 )
 Number of external orbitals:       7 (   7 )

 Molecular orbitals read from record     2100.3  Type=RHF/CANONICAL (state 1.1)

 Number of N-1 electron functions:               3
 Number of N-2 electron functions:               6
 Number of singly external CSFs:                21
 Number of doubly external CSFs:               231
 Total number of CSFs:                         253

 Length of J-op  integral file:               0.00 MB
 Length of K-op  integral file:               0.04 MB
 Length of 3-ext integral record:             0.00 MB

 Integral transformation finished. Total CPU:   0.00 sec, npass=  1  Memory used:   0.07 MW

 Reference energy:                    -14.63864283

 MP2 singlet pair energy:              -0.01670946
 MP2 triplet pair energy:              -0.00004955
 MP2 correlation energy:               -0.01675902
 MP2 total energy:                    -14.65540185

 SCS-MP2 correlation energy:           -0.02008219   (PS=  1.200000  PT=  0.333333)
 SCS-MP2 total energy:                -14.65872502

 ITER.      SQ.NORM     CORR.ENERGY   TOTAL ENERGY   ENERGY CHANGE        DEN1      VAR(S)    VAR(P)  DIIS     TIME  TIME/IT
   1      1.04539718    -0.02487834   -14.66352118    -0.00811933    -0.00444867  0.24D-03  0.25D-02  1  1     0.01     0.00
   2      1.07651270    -0.02824389   -14.66688672    -0.00336554    -0.00523872  0.10D-03  0.32D-03  2  2     0.02     0.00
   3      1.09119361    -0.02857720   -14.66722004    -0.00033332    -0.00159566  0.14D-04  0.63D-04  3  3     0.02     0.00
   4      1.09843293    -0.02861206   -14.66725490    -0.00003486    -0.00050435  0.90D-07  0.32D-05  4  4     0.02     0.00
   5      1.09955666    -0.02866744   -14.66731027    -0.00005538    -0.00009970  0.13D-07  0.60D-06  5  5     0.02     0.00
   6      1.09964163    -0.02865148   -14.66729432     0.00001596    -0.00000112  0.28D-08  0.18D-06  6  6     0.02     0.00
   7      1.09970101    -0.02864885   -14.66729169     0.00000263    -0.00000195  0.13D-08  0.41D-07  6  1     0.03     0.00
   8      1.09973085    -0.02864940   -14.66729224    -0.00000055    -0.00000048  0.64D-09  0.19D-08  6  2     0.03     0.00
   9      1.09972994    -0.02864924   -14.66729208     0.00000016    -0.00000004  0.57D-10  0.27D-09  6  4     0.03     0.00
  10      1.09972791    -0.02864934   -14.66729218    -0.00000010     0.00000025  0.11D-12  0.85D-10  6  3     0.03     0.00
  11      1.09972657    -0.02864939   -14.66729223    -0.00000005     0.00000022  0.12D-10  0.65D-11  6  5     0.04     0.00
  12      1.09972680    -0.02864940   -14.66729223    -0.00000000     0.00000002  0.87D-11  0.12D-11  6  6     0.04     0.00
  13      1.09972772    -0.02864938   -14.66729222     0.00000001    -0.00000007  0.15D-11  0.55D-12  6  1     0.04     0.00
  14      1.09972839    -0.02864937   -14.66729221     0.00000001    -0.00000005  0.47D-13  0.12D-12  6  2     0.04     0.00
  15      1.09972861    -0.02864937   -14.66729220     0.00000000    -0.00000001  0.14D-14  0.11D-13  6  4     0.05     0.00
  16      1.09972864    -0.02864937   -14.66729220    -0.00000000    -0.00000000  0.34D-15  0.22D-14  6  5     0.05     0.00
  17      1.09972865    -0.02864937   -14.66729220    -0.00000000    -0.00000000  0.14D-15  0.68D-15  6  3     0.05     0.00
  18      1.09972867    -0.02864937   -14.66729220     0.00000000    -0.00000000  0.57D-17  0.21D-15  6  6     0.05     0.00
  19      1.09972868    -0.02864937   -14.66729220     0.00000000    -0.00000000  0.42D-17  0.35D-16  6  1     0.05     0.00
  20      1.09972868    -0.02864937   -14.66729220     0.00000000    -0.00000000  0.33D-19  0.70D-17  6  3     0.06     0.00
  21      1.09972868    -0.02864937   -14.66729220     0.00000000    -0.00000000  0.76D-18  0.12D-17  6  5     0.06     0.00
  22      1.09972868    -0.02864937   -14.66729220     0.00000000    -0.00000000  0.63D-19  0.61D-19  6  2     0.06     0.00
  23      1.09972868    -0.02864937   -14.66729220     0.00000000    -0.00000000  0.33D-20  0.12D-19  6  4     0.06     0.00
  24      1.09972868    -0.02864937   -14.66729220     0.00000000    -0.00000000  0.15D-20  0.45D-20  6  3     0.06     0.00
  25      1.09972868    -0.02864937   -14.66729220     0.00000000    -0.00000000  0.26D-21  0.17D-21  6  6     0.07     0.00
  26      1.09972868    -0.02864937   -14.66729220     0.00000000    -0.00000000  0.85D-22  0.89D-23  6  1     0.07     0.00
  27      1.09972868    -0.02864937   -14.66729220     0.00000000    -0.00000000  0.72D-24  0.34D-23  6  5     0.07     0.00
  28      1.09972868    -0.02864937   -14.66729220     0.00000000    -0.00000000  0.27D-24  0.54D-24  6  2     0.07     0.00

 Norm of t1 vector:      0.06392801      S-energy:    -0.00000000      T1 diagnostic:  0.01845443
                                                                       D1 diagnostic:  0.04518765

 Singles amplitudes (print threshold =  0.000E+00):

         I         SYM. A    A   T(IA)

         1         1         1     -0.00000000
         1         1         2      0.00000000
         1         1         3     -0.00000000
         1         1         4      0.00028246
         1         1         5     -0.00000000
         1         1         6      0.00000000
         1         1         7     -0.00000000
         2         1         1      0.00077229
         2         1         2     -0.00000000
         2         1         3     -0.00000000
         2         1         4      0.00000000
         2         1         5     -0.00000000
         2         1         6     -0.00000000
         2         1         7      0.00093527
         3         1         1     -0.00000000
         3         1         2     -0.00000000
         3         1         3      0.00000000
         3         1         4     -0.04518677
         3         1         5      0.00000000
         3         1         6     -0.00000000
         3         1         7     -0.00000000

 Doubles amplitudes (print threshold =  0.000E+00):

         I         J         SYM. A    SYM. B    A         B      T(IJ, AB)

         1         1         1         1         1         1     -0.00199033
         1         1         1         1         1         2     -0.00000000
         1         1         1         1         1         3      0.00000000
         1         1         1         1         1         4      0.00000000
         1         1         1         1         1         5      0.00000000
         1         1         1         1         1         6      0.00000000
         1         1         1         1         1         7     -0.00094982
         1         1         1         1         2         1     -0.00000000
         1         1         1         1         2         2     -0.00042946
         1         1         1         1         2         3      0.00000000
         1         1         1         1         2         4      0.00000000
         1         1         1         1         2         5      0.00000000
         1         1         1         1         2         6     -0.00000000
         1         1         1         1         2         7     -0.00000000
         1         1         1         1         3         1      0.00000000
         1         1         1         1         3         2      0.00000000
         1         1         1         1         3         3     -0.00042946
         1         1         1         1         3         4     -0.00000000
         1         1         1         1         3         5     -0.00000000
         1         1         1         1         3         6     -0.00000000
         1         1         1         1         3         7      0.00000000
         1         1         1         1         4         1      0.00000000
         1         1         1         1         4         2      0.00000000
         1         1         1         1         4         3     -0.00000000
         1         1         1         1         4         4     -0.00088492
         1         1         1         1         4         5     -0.00000000
         1         1         1         1         4         6      0.00000000
         1         1         1         1         4         7     -0.00000000
         1         1         1         1         5         1      0.00000000
         1         1         1         1         5         2      0.00000000
         1         1         1         1         5         3     -0.00000000
         1         1         1         1         5         4     -0.00000000
         1         1         1         1         5         5     -0.00113873
         1         1         1         1         5         6     -0.00000000
         1         1         1         1         5         7      0.00000000
         1         1         1         1         6         1      0.00000000
         1         1         1         1         6         2     -0.00000000
         1         1         1         1         6         3     -0.00000000
         1         1         1         1         6         4      0.00000000
         1         1         1         1         6         5     -0.00000000
         1         1         1         1         6         6     -0.00113873
         1         1         1         1         6         7     -0.00000000
         1         1         1         1         7         1     -0.00094982
         1         1         1         1         7         2     -0.00000000
         1         1         1         1         7         3      0.00000000
         1         1         1         1         7         4     -0.00000000
         1         1         1         1         7         5      0.00000000
         1         1         1         1         7         6     -0.00000000
         1         1         1         1         7         7     -0.00264303
         2         1         1         1         1         1     -0.00000000
         2         1         1         1         1         2     -0.00000000
         2         1         1         1         1         3     -0.00000000
         2         1         1         1         1         4      0.00080828
         2         1         1         1         1         5      0.00000000
         2         1         1         1         1         6     -0.00000000
         2         1         1         1         1         7     -0.00000000
         2         1         1         1         2         1     -0.00000000
         2         1         1         1         2         2      0.00000000
         2         1         1         1         2         3      0.00000000
         2         1         1         1         2         4     -0.00000000
         2         1         1         1         2         5      0.00029294
         2         1         1         1         2         6     -0.00092113
         2         1         1         1         2         7      0.00000000
         2         1         1         1         3         1     -0.00000000
         2         1         1         1         3         2      0.00000000
         2         1         1         1         3         3      0.00000000
         2         1         1         1         3         4     -0.00000000
         2         1         1         1         3         5     -0.00092113
         2         1         1         1         3         6     -0.00029294
         2         1         1         1         3         7      0.00000000
         2         1         1         1         4         1      0.00074344
         2         1         1         1         4         2     -0.00000000
         2         1         1         1         4         3     -0.00000000
         2         1         1         1         4         4      0.00000000
         2         1         1         1         4         5     -0.00000000
         2         1         1         1         4         6     -0.00000000
         2         1         1         1         4         7     -0.00096278
         2         1         1         1         5         1      0.00000000
         2         1         1         1         5         2      0.00031178
         2         1         1         1         5         3     -0.00098039
         2         1         1         1         5         4     -0.00000000
         2         1         1         1         5         5      0.00000000
         2         1         1         1         5         6     -0.00000000
         2         1         1         1         5         7      0.00000000
         2         1         1         1         6         1     -0.00000000
         2         1         1         1         6         2     -0.00098039
         2         1         1         1         6         3     -0.00031178
         2         1         1         1         6         4     -0.00000000
         2         1         1         1         6         5     -0.00000000
         2         1         1         1         6         6      0.00000000
         2         1         1         1         6         7     -0.00000000
         2         1         1         1         7         1     -0.00000000
         2         1         1         1         7         2      0.00000000
         2         1         1         1         7         3      0.00000000
         2         1         1         1         7         4     -0.00107637
         2         1         1         1         7         5      0.00000000
         2         1         1         1         7         6     -0.00000000
         2         1         1         1         7         7      0.00000000
         2         2         1         1         1         1     -0.00201624
         2         2         1         1         1         2      0.00000000
         2         2         1         1         1         3      0.00000000
         2         2         1         1         1         4     -0.00000000
         2         2         1         1         1         5      0.00000000
         2         2         1         1         1         6      0.00000000
         2         2         1         1         1         7     -0.00087450
         2         2         1         1         2         1      0.00000000
         2         2         1         1         2         2     -0.00037963
         2         2         1         1         2         3      0.00000000
         2         2         1         1         2         4      0.00000000
         2         2         1         1         2         5     -0.00000000
         2         2         1         1         2         6      0.00000000
         2         2         1         1         2         7     -0.00000000
         2         2         1         1         3         1      0.00000000
         2         2         1         1         3         2      0.00000000
         2         2         1         1         3         3     -0.00037963
         2         2         1         1         3         4     -0.00000000
         2         2         1         1         3         5      0.00000000
         2         2         1         1         3         6      0.00000000
         2         2         1         1         3         7      0.00000000
         2         2         1         1         4         1     -0.00000000
         2         2         1         1         4         2      0.00000000
         2         2         1         1         4         3     -0.00000000
         2         2         1         1         4         4     -0.00075987
         2         2         1         1         4         5     -0.00000000
         2         2         1         1         4         6      0.00000000
         2         2         1         1         4         7      0.00000000
         2         2         1         1         5         1      0.00000000
         2         2         1         1         5         2     -0.00000000
         2         2         1         1         5         3      0.00000000
         2         2         1         1         5         4     -0.00000000
         2         2         1         1         5         5     -0.00122299
         2         2         1         1         5         6     -0.00000000
         2         2         1         1         5         7      0.00000000
         2         2         1         1         6         1      0.00000000
         2         2         1         1         6         2      0.00000000
         2         2         1         1         6         3      0.00000000
         2         2         1         1         6         4      0.00000000
         2         2         1         1         6         5     -0.00000000
         2         2         1         1         6         6     -0.00122299
         2         2         1         1         6         7     -0.00000000
         2         2         1         1         7         1     -0.00087450
         2         2         1         1         7         2     -0.00000000
         2         2         1         1         7         3      0.00000000
         2         2         1         1         7         4      0.00000000
         2         2         1         1         7         5      0.00000000
         2         2         1         1         7         6     -0.00000000
         2         2         1         1         7         7     -0.00273824
         3         1         1         1         1         1      0.00124336
         3         1         1         1         1         2      0.00000000
         3         1         1         1         1         3     -0.00000000
         3         1         1         1         1         4     -0.00000000
         3         1         1         1         1         5      0.00000000
         3         1         1         1         1         6      0.00000000
         3         1         1         1         1         7      0.00268847
         3         1         1         1         2         1      0.00000000
         3         1         1         1         2         2     -0.00285878
         3         1         1         1         2         3      0.00000000
         3         1         1         1         2         4      0.00000000
         3         1         1         1         2         5     -0.00000000
         3         1         1         1         2         6      0.00000000
         3         1         1         1         2         7     -0.00000000
         3         1         1         1         3         1      0.00000000
         3         1         1         1         3         2      0.00000000
         3         1         1         1         3         3     -0.00285878
         3         1         1         1         3         4     -0.00000000
         3         1         1         1         3         5      0.00000000
         3         1         1         1         3         6      0.00000000
         3         1         1         1         3         7      0.00000000
         3         1         1         1         4         1     -0.00000000
         3         1         1         1         4         2      0.00000000
         3         1         1         1         4         3      0.00000000
         3         1         1         1         4         4     -0.00342666
         3         1         1         1         4         5      0.00000000
         3         1         1         1         4         6     -0.00000000
         3         1         1         1         4         7      0.00000000
         3         1         1         1         5         1      0.00000000
         3         1         1         1         5         2     -0.00000000
         3         1         1         1         5         3      0.00000000
         3         1         1         1         5         4      0.00000000
         3         1         1         1         5         5     -0.00284613
         3         1         1         1         5         6     -0.00000000
         3         1         1         1         5         7      0.00000000
         3         1         1         1         6         1      0.00000000
         3         1         1         1         6         2      0.00000000
         3         1         1         1         6         3      0.00000000
         3         1         1         1         6         4     -0.00000000
         3         1         1         1         6         5     -0.00000000
         3         1         1         1         6         6     -0.00284613
         3         1         1         1         6         7     -0.00000000
         3         1         1         1         7         1      0.00227289
         3         1         1         1         7         2     -0.00000000
         3         1         1         1         7         3      0.00000000
         3         1         1         1         7         4      0.00000000
         3         1         1         1         7         5     -0.00000000
         3         1         1         1         7         6     -0.00000000
         3         1         1         1         7         7     -0.00118041
         3         2         1         1         1         1     -0.00000000
         3         2         1         1         1         2     -0.00000000
         3         2         1         1         1         3     -0.00000000
         3         2         1         1         1         4      0.00108556
         3         2         1         1         1         5     -0.00000000
         3         2         1         1         1         6     -0.00000000
         3         2         1         1         1         7      0.00000000
         3         2         1         1         2         1     -0.00000000
         3         2         1         1         2         2     -0.00000000
         3         2         1         1         2         3      0.00000000
         3         2         1         1         2         4     -0.00000000
         3         2         1         1         2         5      0.00089899
         3         2         1         1         2         6     -0.00282686
         3         2         1         1         2         7      0.00000000
         3         2         1         1         3         1     -0.00000000
         3         2         1         1         3         2      0.00000000
         3         2         1         1         3         3     -0.00000000
         3         2         1         1         3         4      0.00000000
         3         2         1         1         3         5     -0.00282686
         3         2         1         1         3         6     -0.00089899
         3         2         1         1         3         7      0.00000000
         3         2         1         1         4         1      0.00131562
         3         2         1         1         4         2     -0.00000000
         3         2         1         1         4         3      0.00000000
         3         2         1         1         4         4     -0.00000000
         3         2         1         1         4         5     -0.00000000
         3         2         1         1         4         6     -0.00000000
         3         2         1         1         4         7     -0.00356645
         3         2         1         1         5         1     -0.00000000
         3         2         1         1         5         2      0.00069291
         3         2         1         1         5         3     -0.00217886
         3         2         1         1         5         4     -0.00000000
         3         2         1         1         5         5     -0.00000000
         3         2         1         1         5         6     -0.00000000
         3         2         1         1         5         7     -0.00000000
         3         2         1         1         6         1     -0.00000000
         3         2         1         1         6         2     -0.00217886
         3         2         1         1         6         3     -0.00069291
         3         2         1         1         6         4     -0.00000000
         3         2         1         1         6         5     -0.00000000
         3         2         1         1         6         6     -0.00000000
         3         2         1         1         6         7      0.00000000
         3         2         1         1         7         1      0.00000000
         3         2         1         1         7         2      0.00000000
         3         2         1         1         7         3      0.00000000
         3         2         1         1         7         4     -0.00186430
         3         2         1         1         7         5     -0.00000000
         3         2         1         1         7         6      0.00000000
         3         2         1         1         7         7     -0.00000000
         3         3         1         1         1         1     -0.14839513
         3         3         1         1         1         2      0.00000000
         3         3         1         1         1         3     -0.00000000
         3         3         1         1         1         4     -0.00000000
         3         3         1         1         1         5     -0.00000000
         3         3         1         1         1         6     -0.00000000
         3         3         1         1         1         7     -0.05201814
         3         3         1         1         2         1      0.00000000
         3         3         1         1         2         2     -0.16965239
         3         3         1         1         2         3     -0.00000000
         3         3         1         1         2         4     -0.00000000
         3         3         1         1         2         5     -0.00000000
         3         3         1         1         2         6      0.00000000
         3         3         1         1         2         7      0.00000000
         3         3         1         1         3         1     -0.00000000
         3         3         1         1         3         2     -0.00000000
         3         3         1         1         3         3     -0.16965239
         3         3         1         1         3         4      0.00000000
         3         3         1         1         3         5      0.00000000
         3         3         1         1         3         6      0.00000000
         3         3         1         1         3         7     -0.00000000
         3         3         1         1         4         1     -0.00000000
         3         3         1         1         4         2     -0.00000000
         3         3         1         1         4         3      0.00000000
         3         3         1         1         4         4     -0.10082634
         3         3         1         1         4         5      0.00000000
         3         3         1         1         4         6     -0.00000000
         3         3         1         1         4         7      0.00000000
         3         3         1         1         5         1     -0.00000000
         3         3         1         1         5         2     -0.00000000
         3         3         1         1         5         3      0.00000000
         3         3         1         1         5         4      0.00000000
         3         3         1         1         5         5     -0.00108295
         3         3         1         1         5         6      0.00000000
         3         3         1         1         5         7     -0.00000000
         3         3         1         1         6         1     -0.00000000
         3         3         1         1         6         2      0.00000000
         3         3         1         1         6         3      0.00000000
         3         3         1         1         6         4     -0.00000000
         3         3         1         1         6         5      0.00000000
         3         3         1         1         6         6     -0.00108295
         3         3         1         1         6         7      0.00000000
         3         3         1         1         7         1     -0.05201814
         3         3         1         1         7         2      0.00000000
         3         3         1         1         7         3     -0.00000000
         3         3         1         1         7         4      0.00000000
         3         3         1         1         7         5     -0.00000000
         3         3         1         1         7         6      0.00000000
         3         3         1         1         7         7     -0.02477609


 RESULTS
 =======

  Reference energy                    -14.638642833983

  Correlated core orbitals:             1.1       2.1
  Orbital energies:                    -2.3298   -2.3297

  CCSD core-core energy                -0.000287375722
  CCSD core-valence energy             -0.000577074079
  CCSD valence correlation energy      -0.027784920412

  CCSD singlet pair energy             -0.028607320177
  CCSD triplet pair energy             -0.000042050017
  CCSD correlation energy              -0.028649370213

 !CCSD total energy                   -14.667292204196

 Timing summary (sec):

 STEP                 CPU(USER)    SYS     CPU(TOT)    WALL
 CCSD iterations         0.07      0.01      0.08      0.10

 Program statistics:

 Available memory in ccsd:                39999164
 Min. memory needed in ccsd:                  2387
 Max. memory used in ccsd:                    2387
 Max. memory used in cckext:                 34992 (28 integral passes)



 **********************************************************************************************************************************
 DATASETS  * FILE   NREC   LENGTH (MB)   RECORD NAMES
              1      20       29.96       500      700      610      900      950      970     1000      129      960     1100   
                                          VAR     GEOM    BASINP   SYMINP    ZMAT    AOBASIS   BASIS     P2S    ABASIS      S 
                                         1400     1410     1200     1210     1080     1600     1650     1300     1700     1380   
                                           T        V       H0       H01     AOSYM     SMH    MOLCAS    ERIS     OPER     JKOP   

              3       5       14.77       500      610      700     1000     2100   
                                          VAR    BASINP    GEOM     BASIS     RHF  

 PROGRAMS   *        TOTAL      CCSD       INT   RESTART
 CPU TIMES  *         0.41      0.15      0.12      0.01
 REAL TIME  *         0.59 SEC
 DISK USED  *        49.42 MB
 **********************************************************************************************************************************
 Molecular orbitals read from record     2100.3  Type=RHF/CANONICAL (state 1.1)
 Occupation numbers read from record     2100.3  Type=RHF/RHF (state 1.1)
 Orbital energies read from record       2100.3  Type=RHF/CANONICAL (state 1.1)
 Redundancy group numbers read from rec  2100.3  Type=RHF/RHF (state 1.1)

 CCSD/STO-3G energy=    -14.667292204196

            CCSD
    -14.66729220
 **********************************************************************************************************************************
 Molpro calculation terminated
