
 Primary working directories    : /scr/yuriaoto/job.023587/molpro.I2M5fMP5EH
 Secondary working directories  : /scr/yuriaoto/job.023587/molpro.I2M5fMP5EH
 Wavefunction directory         : /scr/yuriaoto/job.023587/
 Main file repository           : /scr/yuriaoto/job.023587/molpro.I2M5fMP5EH/

 id        : yuriaoto

 Nodes             nprocs
 t-rex.ufabc.int.br    1

 Using customized tuning parameters: mindgm=8; mindgv=16; mindgc=1; mindgr=1; noblas=0; minvec=7
 default implementation of scratch files=df  


 Variables initialized (933), CPU time= 0.00 sec
 ***,
 memory,40,m
 gprint,orbital,basis,civector
 gthresh,printci=0.0,thrprint=0
 file,3,wfu.dat,old
 
 {bccd,SAVEORB=2150.2,print,CC_NORM_MAX=10.0
 thresh,printci=0.0,ENERGY=1.0E-10,COEFF=1.0E-12
 print,ref=1
 wf,14,1,0;
 }
 
 {put,xml,orbitals.xml; orbital,2150.2; nosort; novariables}
 
 Commands  initialized (760), CPU time= 0.01 sec, 617 directives.
 Default parameters read. Elapsed time= 0.08 sec

 Checking input...
 Passed
1


                                         ***  PROGRAM SYSTEM MOLPRO  ***
                                       Copyright, TTI GmbH Stuttgart, 2015
                                    Version 2019.2 linked Abr  7 2019 15:10:35


 **********************************************************************************************************************************
 LABEL *                                                                                 
  64 bit serial version                                                                  DATE: 05-Jun-20          TIME: 21:23:11  
 **********************************************************************************************************************************

 SHA1:             3a8a58c585c929645742fb5a1b7541a4ad1da699
 **********************************************************************************************************************************


 THRESHOLDS:

 ZERO    =  1.00D-12  ONEINT  =  1.00D-12  TWOINT  =  1.00D-11  PREFAC  =  1.00D-14  XXXXXX  =  1.00D-09  EORDER  =  1.00D-04
 ENERGY  =  0.00D+00  ETEST   =  0.00D+00  EDENS   =  0.00D+00  THRDEDEF=  1.00D-06  GRADIENT=  1.00D-02  STEP    =  1.00D-03
 ORBITAL =  1.00D-05  CIVEC   =  1.00D-05  COEFF   =  1.00D-04  PRINTCI =  0.00D+00  PUNCHCI =  9.90D+01  OPTGRAD =  3.00D-04
 OPTENERG=  1.00D-06  OPTSTEP =  3.00D-04  THRGRAD =  1.00D-10  COMPRESS=  1.00D-11  VARMIN  =  1.00D-07  VARMAX  =  1.00D-03
 THRDOUB =  0.00D+00  THRDIV  =  1.00D-05  THRRED  =  1.00D-07  THRPSP  =  1.00D+00  THRDC   =  1.00D-10  THRCS   =  1.00D-10
 THRNRM  =  1.00D-08  THREQ   =  0.00D+00  THRDE   =  1.00D+00  THRREF  =  1.00D-05  SPARFAC =  1.00D+00  THRDLP  =  1.00D-07
 THRDIA  =  1.00D-10  THRDLS  =  1.00D-07  THRGPS  =  0.00D+00  THRKEX  =  0.00D+00  THRDIS  =  2.00D-01  THRVAR  =  1.00D-10
 THRLOC  =  1.00D-06  THRGAP  =  1.00D-06  THRLOCT = -1.00D+00  THRGAPT = -1.00D+00  THRORB  =  1.00D-06  THRMLTP =  0.00D+00
 THRCPQCI=  1.00D-10  KEXTA   =  0.00D+00  THRCOARS=  0.00D+00  SYMTOL  =  1.00D-06  GRADTOL =  1.00D-06  THROVL  =  1.00D-08
 THRORTH =  1.00D-08  GRID    =  1.00D-06  GRIDMAX =  1.00D-03  DTMAX   =  0.00D+00  THROCCDE=  1.00D-01  THROCCDE=  1.00D-01
 THRPRINT=  0.00D+00


 Variable memory set to   40000000 words,  buffer space 



 Permanent file  3  wfu.dat  assigned.  Implementation=df    Size= 14.09 MB


 PROGRAM * RESTART 


 Reading variables from file 3

 _FNUC           =      0.00000000
 _BASIS          =    CC-PVDZ
 _NELEC          =     14.00000000
 _PROGRAM        =    RHF-SCF
 _DMX_SCF        =      0.00000000
 _DMY_SCF        =      0.00000000
 _DMZ_SCF        =      0.00000000
 _HOMO           =      1.20000000
 _EHOMO          =     -0.46392077
 _LUMO           =      1.60000000
 _ELUMO          =     -0.00944908
 _ENERGY         =   -108.60622581
 _ENERGY_METHOD  =    RHF
 _ENERGY_BASIS   =    cc-pVDZ
 _ENUC           =     16.33333333
 _EPS1(1:7)      =    -15.79676678    -1.19737912    -0.55506402     0.94628654     1.05507753     1.91447057
                        2.03771558
 _EPS2(1:3)      =     -0.46392077     0.91310838     1.72264736
 _EPS3(1:3)      =     -0.46392077     0.91310838     1.72264736
 _EPS4           =      1.91447057
 _EPS5(1:7)      =    -15.79614860    -0.90460729     0.23671206     0.86826039     1.39142551     2.07157051
                        3.02778440
 _EPS6(1:3)      =     -0.00944908     0.99822150     2.45091804
 _EPS7(1:3)      =     -0.00944908     0.99822150     2.45091804
 _EPS8           =      2.07157051
 _IPROC_MPP      =      0.00000000
 _IPROC_MPPX     =      0.00000000
 _ORBITAL        =   2100.30000000
 _STATUS         =      1.00000000
 _DATE           =    23-Mar-20
 _LASTORB        =    RHF
 _OUTPUT         =    /scr/yuriaoto/job.022817/RHF.xml
 _PGROUP         =    D2h 
 _TIME           =    14:41:20
 R               =      3.00000000

 Geometry written to block  1 of record 700


 **********************************************************************************************************************************
 DATASETS  * FILE   NREC   LENGTH (MB)   RECORD NAMES
              3       5       14.77       500      610      700     1000     2100   
                                          VAR    BASINP    GEOM     BASIS     RHF  

 PROGRAMS   *        TOTAL   RESTART
 CPU TIMES  *         0.20      0.03
 REAL TIME  *         0.22 SEC
 DISK USED  *        26.84 MB
 **********************************************************************************************************************************


 Recomputing integrals since basis changed


 Using spherical harmonics

 Library entry N      S cc-pVDZ              selected for orbital group  1
 Library entry N      P cc-pVDZ              selected for orbital group  1
 Library entry N      D cc-pVDZ              selected for orbital group  1


 PROGRAM * SEWARD (Integral evaluation for generally contracted gaussian basis sets)     Author: Roland Lindh, 1990

 Geometry written to block  1 of record 700

 Orientation using atomic masses  
 Molecule type: Linear
 User-specified symmetry elements: X,Y,Z
 Symmetry elements: X,Y,Z
 Rotational constants:      28.6329822     28.6329822      0.0000000 GHz  (calculated with average atomic masses)

 Point group  D2h 



 ATOMIC COORDINATES

 NR  ATOM    CHARGE       X              Y              Z

   1  N1      7.00    0.000000000    0.000000000   -1.500000000
   2  N2      7.00    0.000000000    0.000000000    1.500000000

 Bond lengths in Bohr (Angstrom)

 1-2  3.000000000
     ( 1.587531633)


 BASIS DATA

   Nr Sym  Nuc  Type         Exponents   Contraction coefficients

    1.1 Ag    1  1s        9046.000000     0.000700   -0.000153    0.000000
    2.1 Ag    2  1s        1357.000000     0.005389   -0.001208    0.000000
    3.1 Ag                  309.300000     0.027406   -0.005992    0.000000
                             87.730000     0.103207   -0.024544    0.000000
                             28.560000     0.278723   -0.067459    0.000000
                             10.210000     0.448540   -0.158078    0.000000
                              3.838000     0.278238   -0.121831    0.000000
                              0.746600     0.015440    0.549003    0.000000
                              0.224800    -0.002864    0.578815    1.000000
    4.1 Ag    1  2pz         13.550000     0.039919    0.000000
    5.1 Ag    2 -2pz          2.917000     0.217169    0.000000
                              0.797300     0.510319    0.000000
                              0.218500     0.462214    1.000000
    6.1 Ag    1  3d0          0.817000     1.000000
              2  3d0   
    7.1 Ag    1  3d2+         0.817000     1.000000
              2  3d2+  
    1.2 B3u   1  2px         13.550000     0.039919    0.000000
    2.2 B3u   2  2px          2.917000     0.217169    0.000000
                              0.797300     0.510319    0.000000
                              0.218500     0.462214    1.000000
    3.2 B3u   1  3d1+         0.817000     1.000000
              2 -3d1+  
    1.3 B2u   1  2py         13.550000     0.039919    0.000000
    2.3 B2u   2  2py          2.917000     0.217169    0.000000
                              0.797300     0.510319    0.000000
                              0.218500     0.462214    1.000000
    3.3 B2u   1  3d1-         0.817000     1.000000
              2 -3d1-  
    1.4 B1g   1  3d2-         0.817000     1.000000
              2  3d2-  
    1.5 B1u   1  1s        9046.000000     0.000700   -0.000153    0.000000
    2.5 B1u   2 -1s        1357.000000     0.005389   -0.001208    0.000000
    3.5 B1u                 309.300000     0.027406   -0.005992    0.000000
                             87.730000     0.103207   -0.024544    0.000000
                             28.560000     0.278723   -0.067459    0.000000
                             10.210000     0.448540   -0.158078    0.000000
                              3.838000     0.278238   -0.121831    0.000000
                              0.746600     0.015440    0.549003    0.000000
                              0.224800    -0.002864    0.578815    1.000000
    4.5 B1u   1  2pz         13.550000     0.039919    0.000000
    5.5 B1u   2  2pz          2.917000     0.217169    0.000000
                              0.797300     0.510319    0.000000
                              0.218500     0.462214    1.000000
    6.5 B1u   1  3d0          0.817000     1.000000
              2 -3d0   
    7.5 B1u   1  3d2+         0.817000     1.000000
              2 -3d2+  
    1.6 B2g   1  2px         13.550000     0.039919    0.000000
    2.6 B2g   2 -2px          2.917000     0.217169    0.000000
                              0.797300     0.510319    0.000000
                              0.218500     0.462214    1.000000
    3.6 B2g   1  3d1+         0.817000     1.000000
              2  3d1+  
    1.7 B3g   1  2py         13.550000     0.039919    0.000000
    2.7 B3g   2 -2py          2.917000     0.217169    0.000000
                              0.797300     0.510319    0.000000
                              0.218500     0.462214    1.000000
    3.7 B3g   1  3d1-         0.817000     1.000000
              2  3d1-  
    1.8 Au    1  3d2-         0.817000     1.000000
              2 -3d2-  

 NUCLEAR CHARGE:                   14
 NUMBER OF PRIMITIVE AOS:          54
 NUMBER OF SYMMETRY AOS:           52
 NUMBER OF CONTRACTIONS:           28   (    7Ag  +    3B3u +    3B2u +    1B1g +    7B1u +    3B2g +    3B3g +    1Au  )
 NUMBER OF CORE ORBITALS:           2   (    1Ag  +    0B3u +    0B2u +    0B1g +    1B1u +    0B2g +    0B3g +    0Au  )
 NUMBER OF VALENCE ORBITALS:        8   (    2Ag  +    1B3u +    1B2u +    0B1g +    2B1u +    1B2g +    1B3g +    0Au  )


 NUCLEAR REPULSION ENERGY   16.33333333

 EXTRA SYMMETRY OF AOS IN SYMMETRY 1:   1 1 1 1 1 1 2
 EXTRA SYMMETRY OF AOS IN SYMMETRY 5:   1 1 1 1 1 1 2

 Eigenvalues of metric

         1 0.453E-01 0.160E+00 0.100E+01 0.103E+01 0.121E+01 0.168E+01 0.337E+01
         2 0.196E+00 0.113E+01 0.236E+01
         3 0.196E+00 0.113E+01 0.236E+01
         4 0.103E+01
         5 0.148E-01 0.123E+00 0.368E+00 0.923E+00 0.975E+00 0.100E+01 0.211E+01
         6 0.152E+00 0.785E+00 0.137E+01
         7 0.152E+00 0.785E+00 0.137E+01
         8 0.975E+00


 Contracted 2-electron integrals neglected if value below      1.0D-11
 AO integral compression algorithm  1   Integral accuracy      1.0D-11

     0.262 MB (compressed) written to integral file (100.0%)


 NUMBER OF SORTED TWO-ELECTRON INTEGRALS:      13015.     BUFFER LENGTH:  32768
 NUMBER OF SEGMENTS:   1  SEGMENT LENGTH:      13015      RECORD LENGTH: 524288

 Memory used in sort:       0.57 MW

 SORT1 READ       27440. AND WROTE       11779. INTEGRALS IN      1 RECORDS. CPU TIME:     0.00 SEC, REAL TIME:     0.01 SEC
 SORT2 READ       11779. AND WROTE       13015. INTEGRALS IN      1 RECORDS. CPU TIME:     0.02 SEC, REAL TIME:     0.03 SEC

 FILE SIZES:   FILE 1:    30.2 MBYTE,  FILE 4:     4.2 MBYTE,   TOTAL:     34.5 MBYTE

 OPERATOR DM      FOR CENTER  0  COORDINATES:    0.000000    0.000000    0.000000


 **********************************************************************************************************************************
 DATASETS  * FILE   NREC   LENGTH (MB)   RECORD NAMES
              1      19       30.05       500      700      610      900      950      970     1000      129      960     1100   
                                          VAR     GEOM    BASINP   SYMINP    ZMAT    AOBASIS   BASIS     P2S    ABASIS      S 
                                         1400     1410     1200     1210     1080     1600     1650     1300     1700   
                                           T        V       H0       H01     AOSYM     SMH    MOLCAS    ERIS     OPER   

              3       5       14.77       500      610      700     1000     2100   
                                          VAR    BASINP    GEOM     BASIS     RHF  

 PROGRAMS   *        TOTAL       INT   RESTART
 CPU TIMES  *         0.43      0.23      0.03
 REAL TIME  *         0.56 SEC
 DISK USED  *        49.46 MB
 **********************************************************************************************************************************


 PROGRAM * BCCD (Closed-shell Brueckner coupled-cluster)     Authors: C. Hampel, H.-J. Werner, 1991, M. Deegan, P.J. Knowles, 1992


 Input parameters for THRESH:

 ENERGY   =    1.00D-10
 COEFF    =    1.00D-12
 PRINTCI  =    0.000000
 THRPRINT =    0.000000

 Convergence thresholds:  THRVAR = 1.00D-24  THRDEN = 1.00D-10

 Number of core orbitals:           2 (   1   0   0   0   1   0   0   0 )
 Number of closed-shell orbitals:   5 (   2   1   1   0   1   0   0   0 )
 Number of external orbitals:      21 (   4   2   2   1   5   3   3   1 )

 Molecular orbitals read from record     2100.3  Type=RHF/CANONICAL (state 1.1)

 Number of N-1 electron functions:               5
 Number of N-2 electron functions:              15
 Number of singly external CSFs:                17
 Number of doubly external CSFs:               802
 Total number of CSFs:                         820

 Brueckner orbitals will be computed and saved on record    2150.2

 Length of J-op  integral file:               0.00 MB
 Length of K-op  integral file:               0.04 MB

 Integral transformation finished. Total CPU:   0.00 sec, npass=  1  Memory used:   0.07 MW

 Reference energy:                   -108.60622581

 MP2 singles energy:                   -0.00000000
 MP2 singlet pair energy:              -0.29939050
 MP2 triplet pair energy:              -0.22929696
 MP2 correlation energy:               -0.52868746
 MP2 total energy:                   -109.13491327

 SCS-MP2 correlation energy:           -0.50194227   (PS=  1.200000  PT=  0.333333)
 SCS-MP2 total energy:               -109.10816807

 ITER.      SQ.NORM     CORR.ENERGY   TOTAL ENERGY   ENERGY CHANGE        DEN1      VAR(S)    VAR(P)  DIIS     TIME  TIME/IT
   1      1.16005354    -0.47460951  -109.08083531     0.05407796     0.17575799  0.18D-01  0.81D-01  1  1     0.02     0.01
   2      1.19971976    -0.45727253  -109.03669555     0.01733698    -0.07546951  0.31D-02  0.16D-01  2  2     0.02     0.01
   3      1.22366835    -0.43961507  -109.03145943     0.01765746    -0.00178904  0.21D-04  0.12D-02  3  3     0.03     0.01
   4      1.26027510    -0.44477522  -109.03444986    -0.00516015    -0.01491636  0.22D-04  0.61D-03  4  4     0.03     0.01
   5      1.26854950    -0.44641462  -109.03583837    -0.00163940    -0.00126721  0.54D-06  0.49D-04  5  5     0.04     0.01
   6      1.27234578    -0.44689929  -109.03623105    -0.00048467     0.00002642  0.37D-06  0.97D-05  6  6     0.04     0.01
   7      1.27498810    -0.44706879  -109.03643381    -0.00016950    -0.00078127  0.54D-07  0.18D-05  6  1     0.05     0.01
   8      1.27451180    -0.44708207  -109.03645581    -0.00001328     0.00004418  0.42D-08  0.12D-06  6  3     0.05     0.01
   9      1.27455512    -0.44707436  -109.03644570     0.00000771     0.00001064  0.18D-09  0.70D-08  6  2     0.06     0.01
  10      1.27460739    -0.44708145  -109.03644981    -0.00000709    -0.00001304  0.27D-10  0.69D-09  6  4     0.06     0.01
  11      1.27459910    -0.44708250  -109.03645025    -0.00000105     0.00000118  0.29D-11  0.64D-10  6  5     0.07     0.01
  12      1.27459222    -0.44708229  -109.03645010     0.00000021     0.00000160  0.38D-12  0.11D-10  6  6     0.07     0.01
  13      1.27459315    -0.44708211  -109.03644995     0.00000018    -0.00000023  0.44D-13  0.16D-11  6  1     0.08     0.01
  14      1.27459361    -0.44708210  -109.03644996     0.00000001    -0.00000001  0.12D-13  0.36D-12  6  3     0.08     0.01
  15      1.27459355    -0.44708210  -109.03644997    -0.00000000     0.00000001  0.12D-14  0.62D-14  6  2     0.09     0.01
  16      1.27459350    -0.44708210  -109.03644997     0.00000001     0.00000002  0.16D-15  0.12D-14  6  4     0.09     0.01
  17      1.27459350    -0.44708210  -109.03644997     0.00000000    -0.00000000  0.49D-16  0.89D-16  6  5     0.10     0.01
  18      1.27459351    -0.44708210  -109.03644997     0.00000000    -0.00000000  0.55D-17  0.23D-16  6  6     0.10     0.01
  19      1.27459351    -0.44708210  -109.03644997    -0.00000000     0.00000000  0.18D-18  0.17D-17  6  1     0.10     0.01
  20      1.27459351    -0.44708210  -109.03644997     0.00000000     0.00000000  0.18D-19  0.39D-18  6  3     0.11     0.01
  21      1.27459351    -0.44708210  -109.03644997     0.00000000     0.00000000  0.34D-20  0.17D-19  6  2     0.11     0.01
  22      1.27459351    -0.44708210  -109.03644997     0.00000000     0.00000000  0.80D-21  0.22D-20  6  4     0.12     0.01
  23      1.27459351    -0.44708210  -109.03644997     0.00000000     0.00000000  0.24D-21  0.26D-21  6  5     0.12     0.01
  24      1.27459351    -0.44708210  -109.03644997    -0.00000000    -0.00000000  0.15D-22  0.54D-22  6  6     0.12     0.01
  25      1.27459351    -0.44708210  -109.03644997    -0.00000000     0.00000000  0.22D-23  0.31D-23  6  1     0.13     0.01
  26      1.27459351    -0.44708210  -109.03644997    -0.00000000     0.00000000  0.13D-24  0.21D-24  6  3     0.13     0.01

 Norm of t1 vector:      0.00000000      S-energy:    -0.00000000      T1 diagnostic:  0.00000000

 Orbital rotation generators (print threshold =  0.000E+00):

         I         SYM. A    A   T(IA)

         1         1         1     -0.00739626
         1         1         2     -0.00044311
         1         1         3      0.00000000
         1         1         4     -0.00527982
         2         1         1      0.00075238
         2         1         2     -0.01420037
         2         1         3     -0.00000000
         2         1         4     -0.01362236
         3         2         1     -0.04848585
         3         2         2     -0.01167091
         4         3         1     -0.04848585
         4         3         2     -0.01167091
         5         5         1      0.02723946
         5         5         2     -0.01127249
         5         5         3      0.00104680
         5         5         4     -0.00000000
         5         5         5     -0.00059526

 Doubles amplitudes (print threshold =  0.000E+00):

         I         J         SYM. A    SYM. B    A         B      T(IJ, AB)

         1         1         1         1         1         1     -0.00440905
         1         1         1         1         1         2      0.00268583
         1         1         1         1         1         3     -0.00000000
         1         1         1         1         1         4      0.00189253
         1         1         1         1         2         1      0.00268583
         1         1         1         1         2         2     -0.01207755
         1         1         1         1         2         3      0.00000000
         1         1         1         1         2         4      0.00093221
         1         1         1         1         3         1     -0.00000000
         1         1         1         1         3         2      0.00000000
         1         1         1         1         3         3     -0.00531045
         1         1         1         1         3         4      0.00000000
         1         1         1         1         4         1      0.00189253
         1         1         1         1         4         2      0.00093221
         1         1         1         1         4         3      0.00000000
         1         1         1         1         4         4     -0.00738971
         1         1         2         2         1         1     -0.00568870
         1         1         2         2         1         2     -0.00002879
         1         1         2         2         2         1     -0.00002879
         1         1         2         2         2         2     -0.00814739
         1         1         3         3         1         1     -0.00568870
         1         1         3         3         1         2     -0.00002879
         1         1         3         3         2         1     -0.00002879
         1         1         3         3         2         2     -0.00814739
         1         1         4         4         1         1     -0.00531045
         1         1         5         5         1         1     -0.03049547
         1         1         5         5         1         2      0.00733303
         1         1         5         5         1         3      0.01000065
         1         1         5         5         1         4      0.00000000
         1         1         5         5         1         5     -0.00288259
         1         1         5         5         2         1      0.00733303
         1         1         5         5         2         2     -0.00437070
         1         1         5         5         2         3     -0.00159689
         1         1         5         5         2         4     -0.00000000
         1         1         5         5         2         5      0.00204121
         1         1         5         5         3         1      0.01000065
         1         1         5         5         3         2     -0.00159689
         1         1         5         5         3         3     -0.00736735
         1         1         5         5         3         4     -0.00000000
         1         1         5         5         3         5      0.00215141
         1         1         5         5         4         1      0.00000000
         1         1         5         5         4         2     -0.00000000
         1         1         5         5         4         3     -0.00000000
         1         1         5         5         4         4     -0.00537302
         1         1         5         5         4         5     -0.00000000
         1         1         5         5         5         1     -0.00288259
         1         1         5         5         5         2      0.00204121
         1         1         5         5         5         3      0.00215141
         1         1         5         5         5         4     -0.00000000
         1         1         5         5         5         5     -0.00344472
         1         1         6         6         1         1     -0.01491629
         1         1         6         6         1         2      0.00750291
         1         1         6         6         1         3     -0.00341052
         1         1         6         6         2         1      0.00750291
         1         1         6         6         2         2     -0.00505700
         1         1         6         6         2         3      0.00216689
         1         1         6         6         3         1     -0.00341052
         1         1         6         6         3         2      0.00216689
         1         1         6         6         3         3     -0.00465576
         1         1         7         7         1         1     -0.01491629
         1         1         7         7         1         2      0.00750291
         1         1         7         7         1         3     -0.00341052
         1         1         7         7         2         1      0.00750291
         1         1         7         7         2         2     -0.00505700
         1         1         7         7         2         3      0.00216689
         1         1         7         7         3         1     -0.00341052
         1         1         7         7         3         2      0.00216689
         1         1         7         7         3         3     -0.00465576
         1         1         8         8         1         1     -0.00537302
         2         1         1         1         1         1      0.00967362
         2         1         1         1         1         2     -0.00646559
         2         1         1         1         1         3     -0.00000000
         2         1         1         1         1         4      0.00041077
         2         1         1         1         2         1      0.00072234
         2         1         1         1         2         2     -0.00870334
         2         1         1         1         2         3     -0.00000000
         2         1         1         1         2         4      0.00099608
         2         1         1         1         3         1     -0.00000000
         2         1         1         1         3         2      0.00000000
         2         1         1         1         3         3      0.00109834
         2         1         1         1         3         4     -0.00000000
         2         1         1         1         4         1      0.00311767
         2         1         1         1         4         2      0.00051582
         2         1         1         1         4         3      0.00000000
         2         1         1         1         4         4     -0.00232006
         2         1         2         2         1         1      0.00187178
         2         1         2         2         1         2      0.00164276
         2         1         2         2         2         1      0.00292950
         2         1         2         2         2         2     -0.00226591
         2         1         3         3         1         1      0.00187178
         2         1         3         3         1         2      0.00164276
         2         1         3         3         2         1      0.00292950
         2         1         3         3         2         2     -0.00226591
         2         1         4         4         1         1      0.00109834
         2         1         5         5         1         1     -0.02515288
         2         1         5         5         1         2      0.00456428
         2         1         5         5         1         3      0.01271827
         2         1         5         5         1         4      0.00000000
         2         1         5         5         1         5     -0.00641342
         2         1         5         5         2         1      0.01231075
         2         1         5         5         2         2      0.00413955
         2         1         5         5         2         3     -0.00950952
         2         1         5         5         2         4      0.00000000
         2         1         5         5         2         5      0.00167054
         2         1         5         5         3         1      0.01198923
         2         1         5         5         3         2     -0.00538881
         2         1         5         5         3         3     -0.00154298
         2         1         5         5         3         4      0.00000000
         2         1         5         5         3         5      0.00110719
         2         1         5         5         4         1     -0.00000000
         2         1         5         5         4         2      0.00000000
         2         1         5         5         4         3      0.00000000
         2         1         5         5         4         4      0.00186865
         2         1         5         5         4         5      0.00000000
         2         1         5         5         5         1     -0.01137007
         2         1         5         5         5         2      0.00339861
         2         1         5         5         5         3      0.00195234
         2         1         5         5         5         4      0.00000000
         2         1         5         5         5         5      0.00024996
         2         1         6         6         1         1      0.00896926
         2         1         6         6         1         2     -0.00046114
         2         1         6         6         1         3     -0.00580290
         2         1         6         6         2         1      0.00169979
         2         1         6         6         2         2      0.00050050
         2         1         6         6         2         3      0.00167532
         2         1         6         6         3         1     -0.01237616
         2         1         6         6         3         2      0.00330566
         2         1         6         6         3         3      0.00074528
         2         1         7         7         1         1      0.00896926
         2         1         7         7         1         2     -0.00046114
         2         1         7         7         1         3     -0.00580290
         2         1         7         7         2         1      0.00169979
         2         1         7         7         2         2      0.00050050
         2         1         7         7         2         3      0.00167532
         2         1         7         7         3         1     -0.01237616
         2         1         7         7         3         2      0.00330566
         2         1         7         7         3         3      0.00074528
         2         1         8         8         1         1      0.00186865
         2         2         1         1         1         1     -0.02121424
         2         2         1         1         1         2     -0.00405671
         2         2         1         1         1         3     -0.00000000
         2         2         1         1         1         4     -0.00329146
         2         2         1         1         2         1     -0.00405671
         2         2         1         1         2         2     -0.00871627
         2         2         1         1         2         3     -0.00000000
         2         2         1         1         2         4      0.00726481
         2         2         1         1         3         1     -0.00000000
         2         2         1         1         3         2     -0.00000000
         2         2         1         1         3         3     -0.00103970
         2         2         1         1         3         4     -0.00000000
         2         2         1         1         4         1     -0.00329146
         2         2         1         1         4         2      0.00726481
         2         2         1         1         4         3     -0.00000000
         2         2         1         1         4         4     -0.01197872
         2         2         2         2         1         1     -0.00190536
         2         2         2         2         1         2     -0.00269560
         2         2         2         2         2         1     -0.00269560
         2         2         2         2         2         2     -0.01336665
         2         2         3         3         1         1     -0.00190536
         2         2         3         3         1         2     -0.00269560
         2         2         3         3         2         1     -0.00269560
         2         2         3         3         2         2     -0.01336665
         2         2         4         4         1         1     -0.00103970
         2         2         5         5         1         1     -0.08346446
         2         2         5         5         1         2      0.02944893
         2         2         5         5         1         3     -0.00009526
         2         2         5         5         1         4     -0.00000000
         2         2         5         5         1         5      0.00241257
         2         2         5         5         2         1      0.02944893
         2         2         5         5         2         2     -0.02812843
         2         2         5         5         2         3      0.00258853
         2         2         5         5         2         4      0.00000000
         2         2         5         5         2         5      0.00009112
         2         2         5         5         3         1     -0.00009526
         2         2         5         5         3         2      0.00258853
         2         2         5         5         3         3     -0.00396083
         2         2         5         5         3         4     -0.00000000
         2         2         5         5         3         5      0.00405754
         2         2         5         5         4         1     -0.00000000
         2         2         5         5         4         2      0.00000000
         2         2         5         5         4         3     -0.00000000
         2         2         5         5         4         4     -0.00080506
         2         2         5         5         4         5     -0.00000000
         2         2         5         5         5         1      0.00241257
         2         2         5         5         5         2      0.00009112
         2         2         5         5         5         3      0.00405754
         2         2         5         5         5         4     -0.00000000
         2         2         5         5         5         5     -0.00582248
         2         2         6         6         1         1     -0.03462784
         2         2         6         6         1         2      0.00340834
         2         2         6         6         1         3      0.00931124
         2         2         6         6         2         1      0.00340834
         2         2         6         6         2         2     -0.00193298
         2         2         6         6         2         3     -0.00058845
         2         2         6         6         3         1      0.00931124
         2         2         6         6         3         2     -0.00058845
         2         2         6         6         3         3     -0.00629898
         2         2         7         7         1         1     -0.03462784
         2         2         7         7         1         2      0.00340834
         2         2         7         7         1         3      0.00931124
         2         2         7         7         2         1      0.00340834
         2         2         7         7         2         2     -0.00193298
         2         2         7         7         2         3     -0.00058845
         2         2         7         7         3         1      0.00931124
         2         2         7         7         3         2     -0.00058845
         2         2         7         7         3         3     -0.00629898
         2         2         8         8         1         1     -0.00080506
         3         3         1         1         1         1     -0.00341958
         3         3         1         1         1         2      0.00246077
         3         3         1         1         1         3     -0.00155578
         3         3         1         1         1         4      0.00157223
         3         3         1         1         2         1      0.00246077
         3         3         1         1         2         2     -0.00757789
         3         3         1         1         2         3     -0.00339406
         3         3         1         1         2         4     -0.00016159
         3         3         1         1         3         1     -0.00155578
         3         3         1         1         3         2     -0.00339406
         3         3         1         1         3         3     -0.00844923
         3         3         1         1         3         4      0.00345615
         3         3         1         1         4         1      0.00157223
         3         3         1         1         4         2     -0.00016159
         3         3         1         1         4         3      0.00345615
         3         3         1         1         4         4     -0.00280110
         3         3         2         2         1         1     -0.01832325
         3         3         2         2         1         2      0.00095480
         3         3         2         2         2         1      0.00095480
         3         3         2         2         2         2     -0.01082657
         3         3         3         3         1         1     -0.00086576
         3         3         3         3         1         2     -0.00013376
         3         3         3         3         2         1     -0.00013376
         3         3         3         3         2         2     -0.00068965
         3         3         4         4         1         1     -0.00844923
         3         3         5         5         1         1     -0.02326654
         3         3         5         5         1         2      0.00304461
         3         3         5         5         1         3      0.00156723
         3         3         5         5         1         4     -0.00502415
         3         3         5         5         1         5      0.00078459
         3         3         5         5         2         1      0.00304461
         3         3         5         5         2         2     -0.00178965
         3         3         5         5         2         3      0.00089783
         3         3         5         5         2         4     -0.00053453
         3         3         5         5         2         5      0.00068065
         3         3         5         5         3         1      0.00156723
         3         3         5         5         3         2      0.00089783
         3         3         5         5         3         3     -0.00318707
         3         3         5         5         3         4     -0.00033512
         3         3         5         5         3         5     -0.00040531
         3         3         5         5         4         1     -0.00502415
         3         3         5         5         4         2     -0.00053453
         3         3         5         5         4         3     -0.00033512
         3         3         5         5         4         4     -0.00547311
         3         3         5         5         4         5      0.00198191
         3         3         5         5         5         1      0.00078459
         3         3         5         5         5         2      0.00068065
         3         3         5         5         5         3     -0.00040531
         3         3         5         5         5         4      0.00198191
         3         3         5         5         5         5     -0.00110661
         3         3         6         6         1         1     -0.23736008
         3         3         6         6         1         2      0.03518138
         3         3         6         6         1         3     -0.00408850
         3         3         6         6         2         1      0.03518138
         3         3         6         6         2         2     -0.01410756
         3         3         6         6         2         3      0.00122718
         3         3         6         6         3         1     -0.00408850
         3         3         6         6         3         2      0.00122718
         3         3         6         6         3         3     -0.00453268
         3         3         7         7         1         1     -0.03649876
         3         3         7         7         1         2      0.00434656
         3         3         7         7         1         3     -0.00091350
         3         3         7         7         2         1      0.00434656
         3         3         7         7         2         2     -0.00072170
         3         3         7         7         2         3      0.00005152
         3         3         7         7         3         1     -0.00091350
         3         3         7         7         3         2      0.00005152
         3         3         7         7         3         3     -0.00018944
         3         3         8         8         1         1     -0.00547311
         4         4         1         1         1         1     -0.00341958
         4         4         1         1         1         2      0.00246077
         4         4         1         1         1         3      0.00155578
         4         4         1         1         1         4      0.00157223
         4         4         1         1         2         1      0.00246077
         4         4         1         1         2         2     -0.00757789
         4         4         1         1         2         3      0.00339406
         4         4         1         1         2         4     -0.00016159
         4         4         1         1         3         1      0.00155578
         4         4         1         1         3         2      0.00339406
         4         4         1         1         3         3     -0.00844923
         4         4         1         1         3         4     -0.00345615
         4         4         1         1         4         1      0.00157223
         4         4         1         1         4         2     -0.00016159
         4         4         1         1         4         3     -0.00345615
         4         4         1         1         4         4     -0.00280110
         4         4         2         2         1         1     -0.00086576
         4         4         2         2         1         2     -0.00013376
         4         4         2         2         2         1     -0.00013376
         4         4         2         2         2         2     -0.00068965
         4         4         3         3         1         1     -0.01832325
         4         4         3         3         1         2      0.00095480
         4         4         3         3         2         1      0.00095480
         4         4         3         3         2         2     -0.01082657
         4         4         4         4         1         1     -0.00844923
         4         4         5         5         1         1     -0.02326654
         4         4         5         5         1         2      0.00304461
         4         4         5         5         1         3      0.00156723
         4         4         5         5         1         4      0.00502415
         4         4         5         5         1         5      0.00078459
         4         4         5         5         2         1      0.00304461
         4         4         5         5         2         2     -0.00178965
         4         4         5         5         2         3      0.00089783
         4         4         5         5         2         4      0.00053453
         4         4         5         5         2         5      0.00068065
         4         4         5         5         3         1      0.00156723
         4         4         5         5         3         2      0.00089783
         4         4         5         5         3         3     -0.00318707
         4         4         5         5         3         4      0.00033512
         4         4         5         5         3         5     -0.00040531
         4         4         5         5         4         1      0.00502415
         4         4         5         5         4         2      0.00053453
         4         4         5         5         4         3      0.00033512
         4         4         5         5         4         4     -0.00547311
         4         4         5         5         4         5     -0.00198191
         4         4         5         5         5         1      0.00078459
         4         4         5         5         5         2      0.00068065
         4         4         5         5         5         3     -0.00040531
         4         4         5         5         5         4     -0.00198191
         4         4         5         5         5         5     -0.00110661
         4         4         6         6         1         1     -0.03649876
         4         4         6         6         1         2      0.00434656
         4         4         6         6         1         3     -0.00091350
         4         4         6         6         2         1      0.00434656
         4         4         6         6         2         2     -0.00072170
         4         4         6         6         2         3      0.00005152
         4         4         6         6         3         1     -0.00091350
         4         4         6         6         3         2      0.00005152
         4         4         6         6         3         3     -0.00018944
         4         4         7         7         1         1     -0.23736008
         4         4         7         7         1         2      0.03518138
         4         4         7         7         1         3     -0.00408850
         4         4         7         7         2         1      0.03518138
         4         4         7         7         2         2     -0.01410756
         4         4         7         7         2         3      0.00122718
         4         4         7         7         3         1     -0.00408850
         4         4         7         7         3         2      0.00122718
         4         4         7         7         3         3     -0.00453268
         4         4         8         8         1         1     -0.00547311
         5         5         1         1         1         1     -0.01428207
         5         5         1         1         1         2      0.00343134
         5         5         1         1         1         3      0.00000000
         5         5         1         1         1         4      0.00021331
         5         5         1         1         2         1      0.00343134
         5         5         1         1         2         2     -0.00370359
         5         5         1         1         2         3     -0.00000000
         5         5         1         1         2         4      0.00139624
         5         5         1         1         3         1      0.00000000
         5         5         1         1         3         2     -0.00000000
         5         5         1         1         3         3     -0.00679475
         5         5         1         1         3         4     -0.00000000
         5         5         1         1         4         1      0.00021331
         5         5         1         1         4         2      0.00139624
         5         5         1         1         4         3     -0.00000000
         5         5         1         1         4         4     -0.00733124
         5         5         2         2         1         1     -0.00645705
         5         5         2         2         1         2     -0.00236272
         5         5         2         2         2         1     -0.00236272
         5         5         2         2         2         2     -0.00785922
         5         5         3         3         1         1     -0.00645705
         5         5         3         3         1         2     -0.00236272
         5         5         3         3         2         1     -0.00236272
         5         5         3         3         2         2     -0.00785922
         5         5         4         4         1         1     -0.00679475
         5         5         5         5         1         1     -0.02686598
         5         5         5         5         1         2      0.00577502
         5         5         5         5         1         3      0.00066498
         5         5         5         5         1         4      0.00000000
         5         5         5         5         1         5      0.00476591
         5         5         5         5         2         1      0.00577502
         5         5         5         5         2         2     -0.01323482
         5         5         5         5         2         3      0.00596686
         5         5         5         5         2         4      0.00000000
         5         5         5         5         2         5     -0.00018870
         5         5         5         5         3         1      0.00066498
         5         5         5         5         3         2      0.00596686
         5         5         5         5         3         3     -0.00672750
         5         5         5         5         3         4     -0.00000000
         5         5         5         5         3         5      0.00079764
         5         5         5         5         4         1      0.00000000
         5         5         5         5         4         2      0.00000000
         5         5         5         5         4         3     -0.00000000
         5         5         5         5         4         4     -0.00558290
         5         5         5         5         4         5      0.00000000
         5         5         5         5         5         1      0.00476591
         5         5         5         5         5         2     -0.00018870
         5         5         5         5         5         3      0.00079764
         5         5         5         5         5         4      0.00000000
         5         5         5         5         5         5     -0.00387287
         5         5         6         6         1         1     -0.04321883
         5         5         6         6         1         2      0.00968919
         5         5         6         6         1         3      0.00584374
         5         5         6         6         2         1      0.00968919
         5         5         6         6         2         2     -0.00574934
         5         5         6         6         2         3     -0.00070826
         5         5         6         6         3         1      0.00584374
         5         5         6         6         3         2     -0.00070826
         5         5         6         6         3         3     -0.00519224
         5         5         7         7         1         1     -0.04321883
         5         5         7         7         1         2      0.00968919
         5         5         7         7         1         3      0.00584374
         5         5         7         7         2         1      0.00968919
         5         5         7         7         2         2     -0.00574934
         5         5         7         7         2         3     -0.00070826
         5         5         7         7         3         1      0.00584374
         5         5         7         7         3         2     -0.00070826
         5         5         7         7         3         3     -0.00519224
         5         5         8         8         1         1     -0.00558290
         3         1         1         2         1         1      0.00470222
         3         1         1         2         1         2      0.00069657
         3         1         1         2         2         1     -0.00468956
         3         1         1         2         2         2     -0.00171988
         3         1         1         2         3         1      0.00235137
         3         1         1         2         3         2     -0.00238691
         3         1         1         2         4         1     -0.00273582
         3         1         1         2         4         2     -0.00032465
         3         1         2         1         1         1      0.00931172
         3         1         2         1         1         2     -0.01218099
         3         1         2         1         1         3      0.00108185
         3         1         2         1         1         4     -0.00335489
         3         1         2         1         2         1      0.00158814
         3         1         2         1         2         2      0.00200036
         3         1         2         1         2         3     -0.00037710
         3         1         2         1         2         4     -0.00286642
         3         1         3         4         1         1      0.00108185
         3         1         3         4         2         1     -0.00037710
         3         1         4         3         1         1      0.00235137
         3         1         4         3         1         2     -0.00238691
         3         1         5         6         1         1     -0.02997004
         3         1         5         6         1         2      0.00895467
         3         1         5         6         1         3     -0.00753697
         3         1         5         6         2         1     -0.00076636
         3         1         5         6         2         2      0.00132707
         3         1         5         6         2         3      0.00213457
         3         1         5         6         3         1      0.00170869
         3         1         5         6         3         2     -0.00373579
         3         1         5         6         3         3      0.00038706
         3         1         5         6         4         1     -0.01555246
         3         1         5         6         4         2      0.00373647
         3         1         5         6         4         3     -0.00109175
         3         1         5         6         5         1      0.00562046
         3         1         5         6         5         2     -0.00165514
         3         1         5         6         5         3     -0.00028574
         3         1         6         5         1         1     -0.02977843
         3         1         6         5         1         2     -0.00037333
         3         1         6         5         1         3      0.00683376
         3         1         6         5         1         4     -0.00866849
         3         1         6         5         1         5      0.00273368
         3         1         6         5         2         1      0.01534426
         3         1         6         5         2         2      0.00109861
         3         1         6         5         2         3     -0.00873851
         3         1         6         5         2         4      0.00180411
         3         1         6         5         2         5     -0.00054144
         3         1         6         5         3         1     -0.01134672
         3         1         6         5         3         2      0.00395328
         3         1         6         5         3         3      0.00080973
         3         1         6         5         3         4     -0.00052905
         3         1         6         5         3         5     -0.00085177
         3         1         7         8         1         1     -0.00866849
         3         1         7         8         2         1      0.00180411
         3         1         7         8         3         1     -0.00052905
         3         1         8         7         1         1     -0.01555246
         3         1         8         7         1         2      0.00373647
         3         1         8         7         1         3     -0.00109175
         3         2         1         2         1         1     -0.00373179
         3         2         1         2         1         2     -0.00195852
         3         2         1         2         2         1     -0.00045677
         3         2         1         2         2         2     -0.00210285
         3         2         1         2         3         1     -0.00183623
         3         2         1         2         3         2     -0.00857132
         3         2         1         2         4         1      0.00112272
         3         2         1         2         4         2      0.00173257
         3         2         2         1         1         1     -0.01527392
         3         2         2         1         1         2     -0.00569609
         3         2         2         1         1         3     -0.00099960
         3         2         2         1         1         4     -0.00101940
         3         2         2         1         2         1     -0.00015181
         3         2         2         1         2         2      0.00593262
         3         2         2         1         2         3     -0.00196648
         3         2         2         1         2         4     -0.00799918
         3         2         3         4         1         1     -0.00099960
         3         2         3         4         2         1     -0.00196648
         3         2         4         3         1         1     -0.00183623
         3         2         4         3         1         2     -0.00857132
         3         2         5         6         1         1     -0.02672995
         3         2         5         6         1         2      0.00519897
         3         2         5         6         1         3     -0.00216337
         3         2         5         6         2         1      0.01254315
         3         2         5         6         2         2     -0.00462663
         3         2         5         6         2         3     -0.00116159
         3         2         5         6         3         1      0.00334004
         3         2         5         6         3         2      0.00134078
         3         2         5         6         3         3      0.00080219
         3         2         5         6         4         1      0.00751243
         3         2         5         6         4         2     -0.00002375
         3         2         5         6         4         3     -0.00463045
         3         2         5         6         5         1     -0.00505589
         3         2         5         6         5         2      0.00105788
         3         2         5         6         5         3      0.00097573
         3         2         6         5         1         1     -0.06265588
         3         2         6         5         1         2      0.02454843
         3         2         6         5         1         3      0.00205057
         3         2         6         5         1         4      0.00390181
         3         2         6         5         1         5     -0.00358290
         3         2         6         5         2         1      0.01513162
         3         2         6         5         2         2     -0.01502516
         3         2         6         5         2         3      0.00038897
         3         2         6         5         2         4     -0.00038714
         3         2         6         5         2         5      0.00282820
         3         2         6         5         3         1      0.00287821
         3         2         6         5         3         2     -0.00179920
         3         2         6         5         3         3      0.00322581
         3         2         6         5         3         4     -0.00102812
         3         2         6         5         3         5     -0.00320602
         3         2         7         8         1         1      0.00390181
         3         2         7         8         2         1     -0.00038714
         3         2         7         8         3         1     -0.00102812
         3         2         8         7         1         1      0.00751243
         3         2         8         7         1         2     -0.00002375
         3         2         8         7         1         3     -0.00463045
         4         1         1         3         1         1      0.00470222
         4         1         1         3         1         2      0.00069657
         4         1         1         3         2         1     -0.00468956
         4         1         1         3         2         2     -0.00171988
         4         1         1         3         3         1     -0.00235137
         4         1         1         3         3         2      0.00238691
         4         1         1         3         4         1     -0.00273582
         4         1         1         3         4         2     -0.00032465
         4         1         2         4         1         1      0.00108185
         4         1         2         4         2         1     -0.00037710
         4         1         3         1         1         1      0.00931172
         4         1         3         1         1         2     -0.01218099
         4         1         3         1         1         3     -0.00108185
         4         1         3         1         1         4     -0.00335489
         4         1         3         1         2         1      0.00158814
         4         1         3         1         2         2      0.00200036
         4         1         3         1         2         3      0.00037710
         4         1         3         1         2         4     -0.00286642
         4         1         4         2         1         1      0.00235137
         4         1         4         2         1         2     -0.00238691
         4         1         5         7         1         1     -0.02997004
         4         1         5         7         1         2      0.00895467
         4         1         5         7         1         3     -0.00753697
         4         1         5         7         2         1     -0.00076636
         4         1         5         7         2         2      0.00132707
         4         1         5         7         2         3      0.00213457
         4         1         5         7         3         1      0.00170869
         4         1         5         7         3         2     -0.00373579
         4         1         5         7         3         3      0.00038706
         4         1         5         7         4         1      0.01555246
         4         1         5         7         4         2     -0.00373647
         4         1         5         7         4         3      0.00109175
         4         1         5         7         5         1      0.00562046
         4         1         5         7         5         2     -0.00165514
         4         1         5         7         5         3     -0.00028574
         4         1         6         8         1         1     -0.00866849
         4         1         6         8         2         1      0.00180411
         4         1         6         8         3         1     -0.00052905
         4         1         7         5         1         1     -0.02977843
         4         1         7         5         1         2     -0.00037333
         4         1         7         5         1         3      0.00683376
         4         1         7         5         1         4      0.00866849
         4         1         7         5         1         5      0.00273368
         4         1         7         5         2         1      0.01534426
         4         1         7         5         2         2      0.00109861
         4         1         7         5         2         3     -0.00873851
         4         1         7         5         2         4     -0.00180411
         4         1         7         5         2         5     -0.00054144
         4         1         7         5         3         1     -0.01134672
         4         1         7         5         3         2      0.00395328
         4         1         7         5         3         3      0.00080973
         4         1         7         5         3         4      0.00052905
         4         1         7         5         3         5     -0.00085177
         4         1         8         6         1         1     -0.01555246
         4         1         8         6         1         2      0.00373647
         4         1         8         6         1         3     -0.00109175
         4         2         1         3         1         1     -0.00373179
         4         2         1         3         1         2     -0.00195852
         4         2         1         3         2         1     -0.00045677
         4         2         1         3         2         2     -0.00210285
         4         2         1         3         3         1      0.00183623
         4         2         1         3         3         2      0.00857132
         4         2         1         3         4         1      0.00112272
         4         2         1         3         4         2      0.00173257
         4         2         2         4         1         1     -0.00099960
         4         2         2         4         2         1     -0.00196648
         4         2         3         1         1         1     -0.01527392
         4         2         3         1         1         2     -0.00569609
         4         2         3         1         1         3      0.00099960
         4         2         3         1         1         4     -0.00101940
         4         2         3         1         2         1     -0.00015181
         4         2         3         1         2         2      0.00593262
         4         2         3         1         2         3      0.00196648
         4         2         3         1         2         4     -0.00799918
         4         2         4         2         1         1     -0.00183623
         4         2         4         2         1         2     -0.00857132
         4         2         5         7         1         1     -0.02672995
         4         2         5         7         1         2      0.00519897
         4         2         5         7         1         3     -0.00216337
         4         2         5         7         2         1      0.01254315
         4         2         5         7         2         2     -0.00462663
         4         2         5         7         2         3     -0.00116159
         4         2         5         7         3         1      0.00334004
         4         2         5         7         3         2      0.00134078
         4         2         5         7         3         3      0.00080219
         4         2         5         7         4         1     -0.00751243
         4         2         5         7         4         2      0.00002375
         4         2         5         7         4         3      0.00463045
         4         2         5         7         5         1     -0.00505589
         4         2         5         7         5         2      0.00105788
         4         2         5         7         5         3      0.00097573
         4         2         6         8         1         1      0.00390181
         4         2         6         8         2         1     -0.00038714
         4         2         6         8         3         1     -0.00102812
         4         2         7         5         1         1     -0.06265588
         4         2         7         5         1         2      0.02454843
         4         2         7         5         1         3      0.00205057
         4         2         7         5         1         4     -0.00390181
         4         2         7         5         1         5     -0.00358290
         4         2         7         5         2         1      0.01513162
         4         2         7         5         2         2     -0.01502516
         4         2         7         5         2         3      0.00038897
         4         2         7         5         2         4      0.00038714
         4         2         7         5         2         5      0.00282820
         4         2         7         5         3         1      0.00287821
         4         2         7         5         3         2     -0.00179920
         4         2         7         5         3         3      0.00322581
         4         2         7         5         3         4      0.00102812
         4         2         7         5         3         5     -0.00320602
         4         2         8         6         1         1      0.00751243
         4         2         8         6         1         2     -0.00002375
         4         2         8         6         1         3     -0.00463045
         4         3         1         4         1         1     -0.00155578
         4         3         1         4         2         1     -0.00339406
         4         3         1         4         3         1      0.00616340
         4         3         1         4         4         1      0.00345615
         4         3         2         3         1         1     -0.00136107
         4         3         2         3         1         2      0.00014086
         4         3         2         3         2         1      0.00014086
         4         3         2         3         2         2     -0.00124451
         4         3         3         2         1         1     -0.01609642
         4         3         3         2         1         2      0.00094769
         4         3         3         2         2         1      0.00094769
         4         3         3         2         2         2     -0.00889241
         4         3         4         1         1         1     -0.00155578
         4         3         4         1         1         2     -0.00339406
         4         3         4         1         1         3     -0.00616340
         4         3         4         1         1         4      0.00345615
         4         3         5         8         1         1     -0.00502415
         4         3         5         8         2         1     -0.00053453
         4         3         5         8         3         1     -0.00033512
         4         3         5         8         4         1      0.00406969
         4         3         5         8         5         1      0.00198191
         4         3         6         7         1         1     -0.09071564
         4         3         6         7         1         2      0.01133964
         4         3         6         7         1         3     -0.00244605
         4         3         6         7         2         1      0.01133964
         4         3         6         7         2         2     -0.00207994
         4         3         6         7         2         3      0.00035625
         4         3         6         7         3         1     -0.00244605
         4         3         6         7         3         2      0.00035625
         4         3         6         7         3         3     -0.00073416
         4         3         7         6         1         1     -0.11014567
         4         3         7         6         1         2      0.01949519
         4         3         7         6         1         3     -0.00072895
         4         3         7         6         2         1      0.01949519
         4         3         7         6         2         2     -0.01130592
         4         3         7         6         2         3      0.00081940
         4         3         7         6         3         1     -0.00072895
         4         3         7         6         3         2      0.00081940
         4         3         7         6         3         3     -0.00360908
         4         3         8         5         1         1     -0.00502415
         4         3         8         5         1         2     -0.00053453
         4         3         8         5         1         3     -0.00033512
         4         3         8         5         1         4     -0.00406969
         4         3         8         5         1         5      0.00198191
         5         1         1         5         1         1     -0.00362413
         5         1         1         5         1         2     -0.00510145
         5         1         1         5         1         3      0.00562420
         5         1         1         5         1         4      0.00000000
         5         1         1         5         1         5      0.00094233
         5         1         1         5         2         1      0.00612222
         5         1         1         5         2         2     -0.00112687
         5         1         1         5         2         3     -0.00540602
         5         1         1         5         2         4     -0.00000000
         5         1         1         5         2         5      0.00161200
         5         1         1         5         3         1     -0.00000000
         5         1         1         5         3         2     -0.00000000
         5         1         1         5         3         3     -0.00000000
         5         1         1         5         3         4     -0.00571602
         5         1         1         5         3         5     -0.00000000
         5         1         1         5         4         1      0.00834373
         5         1         1         5         4         2     -0.00170807
         5         1         1         5         4         3     -0.00018216
         5         1         1         5         4         4     -0.00000000
         5         1         1         5         4         5     -0.00295596
         5         1         2         6         1         1      0.01136120
         5         1         2         6         1         2     -0.00595438
         5         1         2         6         1         3      0.00002010
         5         1         2         6         2         1      0.00459862
         5         1         2         6         2         2      0.00017478
         5         1         2         6         2         3     -0.00452038
         5         1         3         7         1         1      0.01136120
         5         1         3         7         1         2     -0.00595438
         5         1         3         7         1         3      0.00002010
         5         1         3         7         2         1      0.00459862
         5         1         3         7         2         2      0.00017478
         5         1         3         7         2         3     -0.00452038
         5         1         4         8         1         1     -0.00571602
         5         1         5         1         1         1     -0.00072976
         5         1         5         1         1         2      0.00719942
         5         1         5         1         1         3      0.00000000
         5         1         5         1         1         4      0.00273463
         5         1         5         1         2         1     -0.00734922
         5         1         5         1         2         2      0.00136723
         5         1         5         1         2         3     -0.00000000
         5         1         5         1         2         4      0.00086196
         5         1         5         1         3         1      0.00455779
         5         1         5         1         3         2     -0.00824988
         5         1         5         1         3         3     -0.00000000
         5         1         5         1         3         4      0.00065197
         5         1         5         1         4         1      0.00000000
         5         1         5         1         4         2     -0.00000000
         5         1         5         1         4         3     -0.00658001
         5         1         5         1         4         4     -0.00000000
         5         1         5         1         5         1      0.00116741
         5         1         5         1         5         2      0.00154786
         5         1         5         1         5         3     -0.00000000
         5         1         5         1         5         4     -0.00434981
         5         1         6         2         1         1      0.00918403
         5         1         6         2         1         2     -0.00142917
         5         1         6         2         2         1     -0.00585936
         5         1         6         2         2         2      0.00172754
         5         1         6         2         3         1     -0.00093108
         5         1         6         2         3         2     -0.00618902
         5         1         7         3         1         1      0.00918403
         5         1         7         3         1         2     -0.00142917
         5         1         7         3         2         1     -0.00585936
         5         1         7         3         2         2      0.00172754
         5         1         7         3         3         1     -0.00093108
         5         1         7         3         3         2     -0.00618902
         5         1         8         4         1         1     -0.00658001
         5         2         1         5         1         1     -0.01164718
         5         2         1         5         1         2      0.01875903
         5         2         1         5         1         3     -0.00354383
         5         2         1         5         1         4     -0.00000000
         5         2         1         5         1         5      0.00025543
         5         2         1         5         2         1      0.01253946
         5         2         1         5         2         2     -0.00635713
         5         2         1         5         2         3     -0.00060110
         5         2         1         5         2         4      0.00000000
         5         2         1         5         2         5     -0.00036825
         5         2         1         5         3         1     -0.00000000
         5         2         1         5         3         2      0.00000000
         5         2         1         5         3         3      0.00000000
         5         2         1         5         3         4      0.00228325
         5         2         1         5         3         5      0.00000000
         5         2         1         5         4         1     -0.00579044
         5         2         1         5         4         2      0.00167373
         5         2         1         5         4         3     -0.00325600
         5         2         1         5         4         4      0.00000000
         5         2         1         5         4         5      0.00490512
         5         2         2         6         1         1     -0.00642932
         5         2         2         6         1         2      0.00223623
         5         2         2         6         1         3      0.00395368
         5         2         2         6         2         1     -0.01285874
         5         2         2         6         2         2      0.00177386
         5         2         2         6         2         3      0.00512875
         5         2         3         7         1         1     -0.00642932
         5         2         3         7         1         2      0.00223623
         5         2         3         7         1         3      0.00395368
         5         2         3         7         2         1     -0.01285874
         5         2         3         7         2         2      0.00177386
         5         2         3         7         2         3      0.00512875
         5         2         4         8         1         1      0.00228325
         5         2         5         1         1         1     -0.00017644
         5         2         5         1         1         2      0.01549374
         5         2         5         1         1         3     -0.00000000
         5         2         5         1         1         4     -0.01539559
         5         2         5         1         2         1      0.01663400
         5         2         5         1         2         2     -0.00209183
         5         2         5         1         2         3      0.00000000
         5         2         5         1         2         4      0.00667285
         5         2         5         1         3         1     -0.00883893
         5         2         5         1         3         2     -0.00385226
         5         2         5         1         3         3      0.00000000
         5         2         5         1         3         4     -0.00295189
         5         2         5         1         4         1     -0.00000000
         5         2         5         1         4         2      0.00000000
         5         2         5         1         4         3      0.00223815
         5         2         5         1         4         4      0.00000000
         5         2         5         1         5         1     -0.00023742
         5         2         5         1         5         2     -0.00088467
         5         2         5         1         5         3      0.00000000
         5         2         5         1         5         4      0.00318884
         5         2         6         2         1         1     -0.00634987
         5         2         6         2         1         2     -0.02315174
         5         2         6         2         2         1      0.00250214
         5         2         6         2         2         2      0.00403781
         5         2         6         2         3         1      0.00229835
         5         2         6         2         3         2      0.00360586
         5         2         7         3         1         1     -0.00634987
         5         2         7         3         1         2     -0.02315174
         5         2         7         3         2         1      0.00250214
         5         2         7         3         2         2      0.00403781
         5         2         7         3         3         1      0.00229835
         5         2         7         3         3         2      0.00360586
         5         2         8         4         1         1      0.00223815
         5         3         1         6         1         1     -0.01609786
         5         3         1         6         1         2      0.01256921
         5         3         1         6         1         3      0.00212497
         5         3         1         6         2         1      0.00646848
         5         3         1         6         2         2     -0.00611053
         5         3         1         6         2         3     -0.00077902
         5         3         1         6         3         1     -0.01058991
         5         3         1         6         3         2      0.00200193
         5         3         1         6         3         3      0.00003947
         5         3         1         6         4         1      0.00956265
         5         3         1         6         4         2     -0.00370772
         5         3         1         6         4         3      0.00268313
         5         3         2         5         1         1      0.00511906
         5         3         2         5         1         2      0.00309999
         5         3         2         5         1         3     -0.00410102
         5         3         2         5         1         4      0.00374411
         5         3         2         5         1         5     -0.00216653
         5         3         2         5         2         1     -0.00590385
         5         3         2         5         2         2      0.00278310
         5         3         2         5         2         3      0.00069356
         5         3         2         5         2         4      0.00274904
         5         3         2         5         2         5     -0.00128321
         5         3         3         8         1         1      0.00374411
         5         3         3         8         2         1      0.00274904
         5         3         4         7         1         1     -0.01058991
         5         3         4         7         1         2      0.00200193
         5         3         4         7         1         3      0.00003947
         5         3         5         2         1         1      0.00612984
         5         3         5         2         1         2     -0.01752525
         5         3         5         2         2         1      0.01043940
         5         3         5         2         2         2      0.00514335
         5         3         5         2         3         1     -0.01120553
         5         3         5         2         3         2      0.00047191
         5         3         5         2         4         1      0.00151841
         5         3         5         2         4         2      0.00047805
         5         3         5         2         5         1     -0.00207208
         5         3         5         2         5         2      0.00015136
         5         3         6         1         1         1     -0.01124033
         5         3         6         1         1         2     -0.00311828
         5         3         6         1         1         3     -0.02138396
         5         3         6         1         1         4      0.01390715
         5         3         6         1         2         1      0.00644385
         5         3         6         1         2         2     -0.00333129
         5         3         6         1         2         3      0.00375396
         5         3         6         1         2         4     -0.00319394
         5         3         6         1         3         1      0.00133598
         5         3         6         1         3         2     -0.00076776
         5         3         6         1         3         3      0.00064034
         5         3         6         1         3         4     -0.00003857
         5         3         7         4         1         1     -0.02138396
         5         3         7         4         2         1      0.00375396
         5         3         7         4         3         1      0.00064034
         5         3         8         3         1         1      0.00151841
         5         3         8         3         1         2      0.00047805
         5         4         1         7         1         1     -0.01609786
         5         4         1         7         1         2      0.01256921
         5         4         1         7         1         3      0.00212497
         5         4         1         7         2         1      0.00646848
         5         4         1         7         2         2     -0.00611053
         5         4         1         7         2         3     -0.00077902
         5         4         1         7         3         1      0.01058991
         5         4         1         7         3         2     -0.00200193
         5         4         1         7         3         3     -0.00003947
         5         4         1         7         4         1      0.00956265
         5         4         1         7         4         2     -0.00370772
         5         4         1         7         4         3      0.00268313
         5         4         2         8         1         1      0.00374411
         5         4         2         8         2         1      0.00274904
         5         4         3         5         1         1      0.00511906
         5         4         3         5         1         2      0.00309999
         5         4         3         5         1         3     -0.00410102
         5         4         3         5         1         4     -0.00374411
         5         4         3         5         1         5     -0.00216653
         5         4         3         5         2         1     -0.00590385
         5         4         3         5         2         2      0.00278310
         5         4         3         5         2         3      0.00069356
         5         4         3         5         2         4     -0.00274904
         5         4         3         5         2         5     -0.00128321
         5         4         4         6         1         1     -0.01058991
         5         4         4         6         1         2      0.00200193
         5         4         4         6         1         3      0.00003947
         5         4         5         3         1         1      0.00612984
         5         4         5         3         1         2     -0.01752525
         5         4         5         3         2         1      0.01043940
         5         4         5         3         2         2      0.00514335
         5         4         5         3         3         1     -0.01120553
         5         4         5         3         3         2      0.00047191
         5         4         5         3         4         1     -0.00151841
         5         4         5         3         4         2     -0.00047805
         5         4         5         3         5         1     -0.00207208
         5         4         5         3         5         2      0.00015136
         5         4         6         4         1         1     -0.02138396
         5         4         6         4         2         1      0.00375396
         5         4         6         4         3         1      0.00064034
         5         4         7         1         1         1     -0.01124033
         5         4         7         1         1         2     -0.00311828
         5         4         7         1         1         3      0.02138396
         5         4         7         1         1         4      0.01390715
         5         4         7         1         2         1      0.00644385
         5         4         7         1         2         2     -0.00333129
         5         4         7         1         2         3     -0.00375396
         5         4         7         1         2         4     -0.00319394
         5         4         7         1         3         1      0.00133598
         5         4         7         1         3         2     -0.00076776
         5         4         7         1         3         3     -0.00064034
         5         4         7         1         3         4     -0.00003857
         5         4         8         2         1         1      0.00151841
         5         4         8         2         1         2      0.00047805


 RESULTS
 =======

  Reference energy                   -108.589367873289
  BCCD singlet pair energy             -0.341951293117
  BCCD triplet pair energy             -0.105130803117
  BCCD correlation energy              -0.447082096234

 !BCCD total energy                  -109.036449969524

 Approximate expectation values using Brueckner orbitals

 !BCCD(ref) STATE  1.1 Dipole momen     0.00000000     0.00000000     0.00000000
 Dipole moment /Debye                   0.00000000     0.00000000     0.00000000

 Brueckner orbitals saved on record           2150.2 (orbital set 1)
 Brueckner density (ref) saved on record      2150.2 (density set 1)

 Brueckner orbitals
 ==================

   Orb     Occ           Coefficients

                         1 1s      1 1s      1 1s      1 2pz     1 2pz     1 3d0     1 3d2+ 

   2.1    2.0000000    0.001944  0.952132 -0.101058  0.213763 -0.050601  0.023868  0.000000

   3.1    2.0000000    0.005172 -0.231533 -0.151830  0.955824 -0.070137  0.033772 -0.000000

                         1 2px     1 2px     1 3d1+ 

   1.2    2.0000000    0.926524  0.000386  0.031656

                         1 2py     1 2py     1 3d1- 

   1.3    2.0000000    0.926524  0.000386  0.031656

                         1 1s      1 1s      1 1s      1 2pz     1 2pz     1 3d0     1 3d2+ 

   2.5    2.0000000    0.014974  1.068171 -0.013134 -0.207303  0.027159 -0.011174 -0.000000

 Timing summary (sec):

 STEP                 CPU(USER)    SYS     CPU(TOT)    WALL
 Transformation          0.06      0.04      0.10      0.10
 CCSD iterations         0.10      0.02      0.12      0.12

 Program statistics:

 Available memory in ccsd:                39999100
 Min. memory needed in ccsd:                  4777
 Max. memory used in ccsd:                    5237
 Max. memory used in cckext:                 37650 (26 integral passes)



 **********************************************************************************************************************************
 DATASETS  * FILE   NREC   LENGTH (MB)   RECORD NAMES
              1      20       30.07       500      700      610      900      950      970     1000      129      960     1100   
                                          VAR     GEOM    BASINP   SYMINP    ZMAT    AOBASIS   BASIS     P2S    ABASIS      S 
                                         1400     1410     1200     1210     1080     1600     1650     1300     1700     1380   
                                           T        V       H0       H01     AOSYM     SMH    MOLCAS    ERIS     OPER     JKOP   

              2       4        2.75       700     1000      520     2150   
                                         GEOM     BASIS   MCVARS    BCCD   

              3       5       14.77       500      610      700     1000     2100   
                                          VAR    BASINP    GEOM     BASIS     RHF  

 PROGRAMS   *        TOTAL      BCCD       INT   RESTART
 CPU TIMES  *         0.62      0.19      0.23      0.03
 REAL TIME  *         0.81 SEC
 DISK USED  *        49.46 MB
 **********************************************************************************************************************************

 Dump information in style XML to orbitals.xml                                                                    

 Variables will not be exported.
 Molecular orbitals read from record     2150.2  Type=BCCD/BRUECKNER (state 1.1)
 Occupation numbers read from record     2150.2  Type=BCCD/BRUECKNER (state 1.1)

 No orbital energies found for orbital set 0

 No redundancy group numbers found for orbital set 0

 **********************************************************************************************************************************

 BCCD/cc-pVDZ energy=   -109.036449969524

            BCCD
   -109.03644997
 **********************************************************************************************************************************
 Molpro calculation terminated
