
 Primary working directories    : /scr/yuriaoto/job.023588/molpro.oNojvBsVTA
 Secondary working directories  : /scr/yuriaoto/job.023588/molpro.oNojvBsVTA
 Wavefunction directory         : /scr/yuriaoto/job.023588/
 Main file repository           : /scr/yuriaoto/job.023588/molpro.oNojvBsVTA/

 id        : yuriaoto

 Nodes             nprocs
 t-rex.ufabc.int.br    1

 Using customized tuning parameters: mindgm=8; mindgv=16; mindgc=1; mindgr=1; noblas=0; minvec=7
 default implementation of scratch files=df  


 Variables initialized (933), CPU time= 0.00 sec
 ***,
 memory,40,m
 gprint,orbital,basis,civector
 gthresh,printci=0.0,thrprint=0
 file,3,wfu.dat,old
 
 {bccd,SAVEORB=2150.2,print,CC_NORM_MAX=10.0
 thresh,printci=0.0,ENERGY=1.0E-10,COEFF=1.0E-12
 print,ref=1
 core,0
 wf,14,1,0;
 }
 
 {put,xml,orbitals.xml; orbital,2150.2; nosort; novariables}
 
 Commands  initialized (760), CPU time= 0.01 sec, 617 directives.
 Default parameters read. Elapsed time= 0.03 sec

 Checking input...
 Passed
1


                                         ***  PROGRAM SYSTEM MOLPRO  ***
                                       Copyright, TTI GmbH Stuttgart, 2015
                                    Version 2019.2 linked Abr  7 2019 15:10:35


 **********************************************************************************************************************************
 LABEL *                                                                                 
  64 bit serial version                                                                  DATE: 05-Jun-20          TIME: 21:23:14  
 **********************************************************************************************************************************

 SHA1:             3a8a58c585c929645742fb5a1b7541a4ad1da699
 **********************************************************************************************************************************


 THRESHOLDS:

 ZERO    =  1.00D-12  ONEINT  =  1.00D-12  TWOINT  =  1.00D-11  PREFAC  =  1.00D-14  XXXXXX  =  1.00D-09  EORDER  =  1.00D-04
 ENERGY  =  0.00D+00  ETEST   =  0.00D+00  EDENS   =  0.00D+00  THRDEDEF=  1.00D-06  GRADIENT=  1.00D-02  STEP    =  1.00D-03
 ORBITAL =  1.00D-05  CIVEC   =  1.00D-05  COEFF   =  1.00D-04  PRINTCI =  0.00D+00  PUNCHCI =  9.90D+01  OPTGRAD =  3.00D-04
 OPTENERG=  1.00D-06  OPTSTEP =  3.00D-04  THRGRAD =  1.00D-10  COMPRESS=  1.00D-11  VARMIN  =  1.00D-07  VARMAX  =  1.00D-03
 THRDOUB =  0.00D+00  THRDIV  =  1.00D-05  THRRED  =  1.00D-07  THRPSP  =  1.00D+00  THRDC   =  1.00D-10  THRCS   =  1.00D-10
 THRNRM  =  1.00D-08  THREQ   =  0.00D+00  THRDE   =  1.00D+00  THRREF  =  1.00D-05  SPARFAC =  1.00D+00  THRDLP  =  1.00D-07
 THRDIA  =  1.00D-10  THRDLS  =  1.00D-07  THRGPS  =  0.00D+00  THRKEX  =  0.00D+00  THRDIS  =  2.00D-01  THRVAR  =  1.00D-10
 THRLOC  =  1.00D-06  THRGAP  =  1.00D-06  THRLOCT = -1.00D+00  THRGAPT = -1.00D+00  THRORB  =  1.00D-06  THRMLTP =  0.00D+00
 THRCPQCI=  1.00D-10  KEXTA   =  0.00D+00  THRCOARS=  0.00D+00  SYMTOL  =  1.00D-06  GRADTOL =  1.00D-06  THROVL  =  1.00D-08
 THRORTH =  1.00D-08  GRID    =  1.00D-06  GRIDMAX =  1.00D-03  DTMAX   =  0.00D+00  THROCCDE=  1.00D-01  THROCCDE=  1.00D-01
 THRPRINT=  0.00D+00


 Variable memory set to   40000000 words,  buffer space 



 Permanent file  3  wfu.dat  assigned.  Implementation=df    Size= 14.09 MB


 PROGRAM * RESTART 


 Reading variables from file 3

 _FNUC           =      0.00000000
 _BASIS          =    CC-PVDZ
 _NELEC          =     14.00000000
 _PROGRAM        =    RHF-SCF
 _DMX_SCF        =      0.00000000
 _DMY_SCF        =      0.00000000
 _DMZ_SCF        =      0.00000000
 _HOMO           =      1.20000000
 _EHOMO          =     -0.46392077
 _LUMO           =      1.60000000
 _ELUMO          =     -0.00944908
 _ENERGY         =   -108.60622581
 _ENERGY_METHOD  =    RHF
 _ENERGY_BASIS   =    cc-pVDZ
 _ENUC           =     16.33333333
 _EPS1(1:7)      =    -15.79676678    -1.19737912    -0.55506402     0.94628654     1.05507753     1.91447057
                        2.03771558
 _EPS2(1:3)      =     -0.46392077     0.91310838     1.72264736
 _EPS3(1:3)      =     -0.46392077     0.91310838     1.72264736
 _EPS4           =      1.91447057
 _EPS5(1:7)      =    -15.79614860    -0.90460729     0.23671206     0.86826039     1.39142551     2.07157051
                        3.02778440
 _EPS6(1:3)      =     -0.00944908     0.99822150     2.45091804
 _EPS7(1:3)      =     -0.00944908     0.99822150     2.45091804
 _EPS8           =      2.07157051
 _IPROC_MPP      =      0.00000000
 _IPROC_MPPX     =      0.00000000
 _ORBITAL        =   2100.30000000
 _STATUS         =      1.00000000
 _DATE           =    23-Mar-20
 _LASTORB        =    RHF
 _OUTPUT         =    /scr/yuriaoto/job.022817/RHF.xml
 _PGROUP         =    D2h 
 _TIME           =    14:41:20
 R               =      3.00000000

 Geometry written to block  1 of record 700


 **********************************************************************************************************************************
 DATASETS  * FILE   NREC   LENGTH (MB)   RECORD NAMES
              3       5       14.77       500      610      700     1000     2100   
                                          VAR    BASINP    GEOM     BASIS     RHF  

 PROGRAMS   *        TOTAL   RESTART
 CPU TIMES  *         0.09      0.01
 REAL TIME  *         0.11 SEC
 DISK USED  *        26.84 MB
 **********************************************************************************************************************************


 Recomputing integrals since basis changed


 Using spherical harmonics

 Library entry N      S cc-pVDZ              selected for orbital group  1
 Library entry N      P cc-pVDZ              selected for orbital group  1
 Library entry N      D cc-pVDZ              selected for orbital group  1


 PROGRAM * SEWARD (Integral evaluation for generally contracted gaussian basis sets)     Author: Roland Lindh, 1990

 Geometry written to block  1 of record 700

 Orientation using atomic masses  
 Molecule type: Linear
 User-specified symmetry elements: X,Y,Z
 Symmetry elements: X,Y,Z
 Rotational constants:      28.6329822     28.6329822      0.0000000 GHz  (calculated with average atomic masses)

 Point group  D2h 



 ATOMIC COORDINATES

 NR  ATOM    CHARGE       X              Y              Z

   1  N1      7.00    0.000000000    0.000000000   -1.500000000
   2  N2      7.00    0.000000000    0.000000000    1.500000000

 Bond lengths in Bohr (Angstrom)

 1-2  3.000000000
     ( 1.587531633)


 BASIS DATA

   Nr Sym  Nuc  Type         Exponents   Contraction coefficients

    1.1 Ag    1  1s        9046.000000     0.000700   -0.000153    0.000000
    2.1 Ag    2  1s        1357.000000     0.005389   -0.001208    0.000000
    3.1 Ag                  309.300000     0.027406   -0.005992    0.000000
                             87.730000     0.103207   -0.024544    0.000000
                             28.560000     0.278723   -0.067459    0.000000
                             10.210000     0.448540   -0.158078    0.000000
                              3.838000     0.278238   -0.121831    0.000000
                              0.746600     0.015440    0.549003    0.000000
                              0.224800    -0.002864    0.578815    1.000000
    4.1 Ag    1  2pz         13.550000     0.039919    0.000000
    5.1 Ag    2 -2pz          2.917000     0.217169    0.000000
                              0.797300     0.510319    0.000000
                              0.218500     0.462214    1.000000
    6.1 Ag    1  3d0          0.817000     1.000000
              2  3d0   
    7.1 Ag    1  3d2+         0.817000     1.000000
              2  3d2+  
    1.2 B3u   1  2px         13.550000     0.039919    0.000000
    2.2 B3u   2  2px          2.917000     0.217169    0.000000
                              0.797300     0.510319    0.000000
                              0.218500     0.462214    1.000000
    3.2 B3u   1  3d1+         0.817000     1.000000
              2 -3d1+  
    1.3 B2u   1  2py         13.550000     0.039919    0.000000
    2.3 B2u   2  2py          2.917000     0.217169    0.000000
                              0.797300     0.510319    0.000000
                              0.218500     0.462214    1.000000
    3.3 B2u   1  3d1-         0.817000     1.000000
              2 -3d1-  
    1.4 B1g   1  3d2-         0.817000     1.000000
              2  3d2-  
    1.5 B1u   1  1s        9046.000000     0.000700   -0.000153    0.000000
    2.5 B1u   2 -1s        1357.000000     0.005389   -0.001208    0.000000
    3.5 B1u                 309.300000     0.027406   -0.005992    0.000000
                             87.730000     0.103207   -0.024544    0.000000
                             28.560000     0.278723   -0.067459    0.000000
                             10.210000     0.448540   -0.158078    0.000000
                              3.838000     0.278238   -0.121831    0.000000
                              0.746600     0.015440    0.549003    0.000000
                              0.224800    -0.002864    0.578815    1.000000
    4.5 B1u   1  2pz         13.550000     0.039919    0.000000
    5.5 B1u   2  2pz          2.917000     0.217169    0.000000
                              0.797300     0.510319    0.000000
                              0.218500     0.462214    1.000000
    6.5 B1u   1  3d0          0.817000     1.000000
              2 -3d0   
    7.5 B1u   1  3d2+         0.817000     1.000000
              2 -3d2+  
    1.6 B2g   1  2px         13.550000     0.039919    0.000000
    2.6 B2g   2 -2px          2.917000     0.217169    0.000000
                              0.797300     0.510319    0.000000
                              0.218500     0.462214    1.000000
    3.6 B2g   1  3d1+         0.817000     1.000000
              2  3d1+  
    1.7 B3g   1  2py         13.550000     0.039919    0.000000
    2.7 B3g   2 -2py          2.917000     0.217169    0.000000
                              0.797300     0.510319    0.000000
                              0.218500     0.462214    1.000000
    3.7 B3g   1  3d1-         0.817000     1.000000
              2  3d1-  
    1.8 Au    1  3d2-         0.817000     1.000000
              2 -3d2-  

 NUCLEAR CHARGE:                   14
 NUMBER OF PRIMITIVE AOS:          54
 NUMBER OF SYMMETRY AOS:           52
 NUMBER OF CONTRACTIONS:           28   (    7Ag  +    3B3u +    3B2u +    1B1g +    7B1u +    3B2g +    3B3g +    1Au  )
 NUMBER OF CORE ORBITALS:           2   (    1Ag  +    0B3u +    0B2u +    0B1g +    1B1u +    0B2g +    0B3g +    0Au  )
 NUMBER OF VALENCE ORBITALS:        8   (    2Ag  +    1B3u +    1B2u +    0B1g +    2B1u +    1B2g +    1B3g +    0Au  )


 NUCLEAR REPULSION ENERGY   16.33333333

 EXTRA SYMMETRY OF AOS IN SYMMETRY 1:   1 1 1 1 1 1 2
 EXTRA SYMMETRY OF AOS IN SYMMETRY 5:   1 1 1 1 1 1 2

 Eigenvalues of metric

         1 0.453E-01 0.160E+00 0.100E+01 0.103E+01 0.121E+01 0.168E+01 0.337E+01
         2 0.196E+00 0.113E+01 0.236E+01
         3 0.196E+00 0.113E+01 0.236E+01
         4 0.103E+01
         5 0.148E-01 0.123E+00 0.368E+00 0.923E+00 0.975E+00 0.100E+01 0.211E+01
         6 0.152E+00 0.785E+00 0.137E+01
         7 0.152E+00 0.785E+00 0.137E+01
         8 0.975E+00


 Contracted 2-electron integrals neglected if value below      1.0D-11
 AO integral compression algorithm  1   Integral accuracy      1.0D-11

     0.262 MB (compressed) written to integral file (100.0%)


 NUMBER OF SORTED TWO-ELECTRON INTEGRALS:      13015.     BUFFER LENGTH:  32768
 NUMBER OF SEGMENTS:   1  SEGMENT LENGTH:      13015      RECORD LENGTH: 524288

 Memory used in sort:       0.57 MW

 SORT1 READ       27440. AND WROTE       11779. INTEGRALS IN      1 RECORDS. CPU TIME:     0.00 SEC, REAL TIME:     0.00 SEC
 SORT2 READ       11779. AND WROTE       13015. INTEGRALS IN      1 RECORDS. CPU TIME:     0.03 SEC, REAL TIME:     0.03 SEC

 FILE SIZES:   FILE 1:    30.2 MBYTE,  FILE 4:     4.2 MBYTE,   TOTAL:     34.5 MBYTE

 OPERATOR DM      FOR CENTER  0  COORDINATES:    0.000000    0.000000    0.000000


 **********************************************************************************************************************************
 DATASETS  * FILE   NREC   LENGTH (MB)   RECORD NAMES
              1      19       30.05       500      700      610      900      950      970     1000      129      960     1100   
                                          VAR     GEOM    BASINP   SYMINP    ZMAT    AOBASIS   BASIS     P2S    ABASIS      S 
                                         1400     1410     1200     1210     1080     1600     1650     1300     1700   
                                           T        V       H0       H01     AOSYM     SMH    MOLCAS    ERIS     OPER   

              3       5       14.77       500      610      700     1000     2100   
                                          VAR    BASINP    GEOM     BASIS     RHF  

 PROGRAMS   *        TOTAL       INT   RESTART
 CPU TIMES  *         0.24      0.14      0.01
 REAL TIME  *         0.35 SEC
 DISK USED  *        49.46 MB
 **********************************************************************************************************************************


 PROGRAM * BCCD (Closed-shell Brueckner coupled-cluster)     Authors: C. Hampel, H.-J. Werner, 1991, M. Deegan, P.J. Knowles, 1992


 Input parameters for THRESH:

 ENERGY   =    1.00D-10
 COEFF    =    1.00D-12
 PRINTCI  =    0.000000
 THRPRINT =    0.000000

 Convergence thresholds:  THRVAR = 1.00D-24  THRDEN = 1.00D-10

 Number of closed-shell orbitals:   7 (   3   1   1   0   2   0   0   0 )
 Number of external orbitals:      21 (   4   2   2   1   5   3   3   1 )

 Molecular orbitals read from record     2100.3  Type=RHF/CANONICAL (state 1.1)

 Number of N-1 electron functions:               7
 Number of N-2 electron functions:              28
 Number of singly external CSFs:                26
 Number of doubly external CSFs:              1583
 Total number of CSFs:                        1610

 Brueckner orbitals will be computed and saved on record    2150.2

 Length of J-op  integral file:               0.00 MB
 Length of K-op  integral file:               0.04 MB

 Integral transformation finished. Total CPU:   0.00 sec, npass=  1  Memory used:   0.07 MW

 Reference energy:                   -108.60622581

 MP2 singles energy:                   -0.00000000
 MP2 singlet pair energy:              -0.30154336
 MP2 triplet pair energy:              -0.23073443
 MP2 correlation energy:               -0.53227780
 MP2 total energy:                   -109.13850360

 SCS-MP2 correlation energy:           -0.50542013   (PS=  1.200000  PT=  0.333333)
 SCS-MP2 total energy:               -109.11164593

 ITER.      SQ.NORM     CORR.ENERGY   TOTAL ENERGY   ENERGY CHANGE        DEN1      VAR(S)    VAR(P)  DIIS     TIME  TIME/IT
   1      1.15977029    -0.47787977  -109.08410557     0.05439803     0.17643138  0.18D-01  0.81D-01  1  1     0.02     0.01
   2      1.19951896    -0.46040894  -109.03985037     0.01747083    -0.07563602  0.31D-02  0.16D-01  2  2     0.03     0.01
   3      1.22340949    -0.44264146  -109.03451213     0.01776748    -0.00174723  0.21D-04  0.12D-02  3  3     0.05     0.01
   4      1.25976493    -0.44780481  -109.03748843    -0.00516335    -0.01487014  0.22D-04  0.61D-03  4  4     0.06     0.01
   5      1.26806057    -0.44942466  -109.03886298    -0.00161985    -0.00129880  0.54D-06  0.48D-04  5  5     0.06     0.01
   6      1.27173890    -0.44990032  -109.03925050    -0.00047566     0.00005146  0.37D-06  0.95D-05  6  6     0.07     0.01
   7      1.27437175    -0.45006726  -109.03945020    -0.00016694    -0.00077692  0.54D-07  0.18D-05  6  1     0.08     0.01
   8      1.27390874    -0.45008096  -109.03947266    -0.00001370     0.00004127  0.41D-08  0.12D-06  6  3     0.09     0.01
   9      1.27394357    -0.45007343  -109.03946260     0.00000753     0.00001224  0.17D-09  0.68D-08  6  2     0.10     0.01
  10      1.27399497    -0.45008024  -109.03946651    -0.00000681    -0.00001271  0.27D-10  0.67D-09  6  4     0.10     0.01
  11      1.27398737    -0.45008128  -109.03946698    -0.00000105     0.00000103  0.30D-11  0.61D-10  6  5     0.11     0.01
  12      1.27398072    -0.45008109  -109.03946683     0.00000019     0.00000153  0.36D-12  0.11D-10  6  6     0.12     0.01
  13      1.27398158    -0.45008092  -109.03946668     0.00000017    -0.00000021  0.44D-13  0.15D-11  6  1     0.12     0.01
  14      1.27398203    -0.45008091  -109.03946669     0.00000001    -0.00000001  0.12D-13  0.35D-12  6  3     0.13     0.01
  15      1.27398198    -0.45008091  -109.03946671    -0.00000000     0.00000001  0.12D-14  0.54D-14  6  2     0.14     0.01
  16      1.27398193    -0.45008090  -109.03946671     0.00000001     0.00000002  0.15D-15  0.11D-14  6  4     0.15     0.01
  17      1.27398194    -0.45008090  -109.03946671     0.00000000    -0.00000000  0.46D-16  0.85D-16  6  5     0.15     0.01
  18      1.27398194    -0.45008090  -109.03946671     0.00000000    -0.00000000  0.51D-17  0.21D-16  6  6     0.16     0.01
  19      1.27398194    -0.45008090  -109.03946671    -0.00000000    -0.00000000  0.19D-18  0.14D-17  6  1     0.16     0.01
  20      1.27398194    -0.45008090  -109.03946671     0.00000000     0.00000000  0.17D-19  0.31D-18  6  3     0.17     0.01
  21      1.27398194    -0.45008090  -109.03946671     0.00000000     0.00000000  0.17D-20  0.12D-19  6  2     0.17     0.01
  22      1.27398194    -0.45008090  -109.03946671     0.00000000     0.00000000  0.42D-21  0.16D-20  6  4     0.18     0.01
  23      1.27398194    -0.45008090  -109.03946671     0.00000000     0.00000000  0.14D-21  0.19D-21  6  3     0.18     0.01
  24      1.27398194    -0.45008090  -109.03946671    -0.00000000    -0.00000000  0.12D-22  0.18D-22  6  1     0.19     0.01
  25      1.27398194    -0.45008090  -109.03946671    -0.00000000     0.00000000  0.11D-23  0.26D-23  6  5     0.20     0.01
  26      1.27398194    -0.45008090  -109.03946671    -0.00000000     0.00000000  0.84D-25  0.25D-24  6  6     0.20     0.01

 Norm of t1 vector:      0.00000000      S-energy:    -0.00000000      T1 diagnostic:  0.00000000

 Orbital rotation generators (print threshold =  0.000E+00):

         I         SYM. A    A   T(IA)

         1         1         1      0.00044914
         1         1         2     -0.00028725
         1         1         3      0.00000000
         1         1         4     -0.00013880
         2         1         1     -0.00746209
         2         1         2     -0.00037831
         2         1         3      0.00000000
         2         1         4     -0.00526903
         3         1         1      0.00076410
         3         1         2     -0.01421582
         3         1         3     -0.00000000
         3         1         4     -0.01361512
         4         2         1     -0.04847955
         4         2         2     -0.01165852
         5         3         1     -0.04847955
         5         3         2     -0.01165852
         6         5         1      0.00018569
         6         5         2      0.00026860
         6         5         3     -0.00037458
         6         5         4     -0.00000000
         6         5         5     -0.00006387
         7         5         1      0.02714417
         7         5         2     -0.01130231
         7         5         3      0.00111120
         7         5         4     -0.00000000
         7         5         5     -0.00059763

 Doubles amplitudes (print threshold =  0.000E+00):

         I         J         SYM. A    SYM. B    A         B      T(IJ, AB)

         1         1         1         1         1         1     -0.00060989
         1         1         1         1         1         2      0.00008995
         1         1         1         1         1         3     -0.00000000
         1         1         1         1         1         4     -0.00002867
         1         1         1         1         2         1      0.00008995
         1         1         1         1         2         2     -0.00050831
         1         1         1         1         2         3      0.00000000
         1         1         1         1         2         4     -0.00031678
         1         1         1         1         3         1     -0.00000000
         1         1         1         1         3         2      0.00000000
         1         1         1         1         3         3      0.00000424
         1         1         1         1         3         4      0.00000000
         1         1         1         1         4         1     -0.00002867
         1         1         1         1         4         2     -0.00031678
         1         1         1         1         4         3      0.00000000
         1         1         1         1         4         4     -0.00019323
         1         1         2         2         1         1     -0.00060251
         1         1         2         2         1         2     -0.00002527
         1         1         2         2         2         1     -0.00002527
         1         1         2         2         2         2      0.00000973
         1         1         3         3         1         1     -0.00060251
         1         1         3         3         1         2     -0.00002527
         1         1         3         3         2         1     -0.00002527
         1         1         3         3         2         2      0.00000973
         1         1         4         4         1         1      0.00000424
         1         1         5         5         1         1     -0.00050386
         1         1         5         5         1         2      0.00032915
         1         1         5         5         1         3      0.00039520
         1         1         5         5         1         4      0.00000000
         1         1         5         5         1         5     -0.00007868
         1         1         5         5         2         1      0.00032915
         1         1         5         5         2         2     -0.00060491
         1         1         5         5         2         3      0.00005225
         1         1         5         5         2         4      0.00000000
         1         1         5         5         2         5      0.00010042
         1         1         5         5         3         1      0.00039520
         1         1         5         5         3         2      0.00005225
         1         1         5         5         3         3     -0.00046398
         1         1         5         5         3         4      0.00000000
         1         1         5         5         3         5      0.00000706
         1         1         5         5         4         1      0.00000000
         1         1         5         5         4         2      0.00000000
         1         1         5         5         4         3      0.00000000
         1         1         5         5         4         4      0.00000002
         1         1         5         5         4         5     -0.00000000
         1         1         5         5         5         1     -0.00007868
         1         1         5         5         5         2      0.00010042
         1         1         5         5         5         3      0.00000706
         1         1         5         5         5         4     -0.00000000
         1         1         5         5         5         5     -0.00002797
         1         1         6         6         1         1     -0.00023586
         1         1         6         6         1         2      0.00046975
         1         1         6         6         1         3      0.00002855
         1         1         6         6         2         1      0.00046975
         1         1         6         6         2         2     -0.00059628
         1         1         6         6         2         3     -0.00004187
         1         1         6         6         3         1      0.00002855
         1         1         6         6         3         2     -0.00004187
         1         1         6         6         3         3     -0.00000519
         1         1         7         7         1         1     -0.00023586
         1         1         7         7         1         2      0.00046975
         1         1         7         7         1         3      0.00002855
         1         1         7         7         2         1      0.00046975
         1         1         7         7         2         2     -0.00059628
         1         1         7         7         2         3     -0.00004187
         1         1         7         7         3         1      0.00002855
         1         1         7         7         3         2     -0.00004187
         1         1         7         7         3         3     -0.00000519
         1         1         8         8         1         1      0.00000002
         2         1         1         1         1         1     -0.00006676
         2         1         1         1         1         2     -0.00026018
         2         1         1         1         1         3     -0.00000000
         2         1         1         1         1         4     -0.00014547
         2         1         1         1         2         1     -0.00045801
         2         1         1         1         2         2     -0.00011849
         2         1         1         1         2         3      0.00000000
         2         1         1         1         2         4     -0.00008191
         2         1         1         1         3         1     -0.00000000
         2         1         1         1         3         2      0.00000000
         2         1         1         1         3         3     -0.00008634
         2         1         1         1         3         4      0.00000000
         2         1         1         1         4         1     -0.00011786
         2         1         1         1         4         2      0.00007620
         2         1         1         1         4         3      0.00000000
         2         1         1         1         4         4     -0.00006765
         2         1         2         2         1         1     -0.00054299
         2         1         2         2         1         2     -0.00001058
         2         1         2         2         2         1      0.00012643
         2         1         2         2         2         2     -0.00008170
         2         1         3         3         1         1     -0.00054299
         2         1         3         3         1         2     -0.00001058
         2         1         3         3         2         1      0.00012643
         2         1         3         3         2         2     -0.00008170
         2         1         4         4         1         1     -0.00008634
         2         1         5         5         1         1     -0.00059145
         2         1         5         5         1         2      0.00076116
         2         1         5         5         1         3      0.00008150
         2         1         5         5         1         4     -0.00000000
         2         1         5         5         1         5     -0.00014200
         2         1         5         5         2         1      0.00046659
         2         1         5         5         2         2     -0.00049066
         2         1         5         5         2         3     -0.00014700
         2         1         5         5         2         4     -0.00000000
         2         1         5         5         2         5      0.00012234
         2         1         5         5         3         1      0.00012769
         2         1         5         5         3         2     -0.00029814
         2         1         5         5         3         3      0.00010146
         2         1         5         5         3         4     -0.00000000
         2         1         5         5         3         5      0.00008909
         2         1         5         5         4         1     -0.00000000
         2         1         5         5         4         2     -0.00000000
         2         1         5         5         4         3     -0.00000000
         2         1         5         5         4         4     -0.00011841
         2         1         5         5         4         5     -0.00000000
         2         1         5         5         5         1     -0.00018225
         2         1         5         5         5         2      0.00021820
         2         1         5         5         5         3      0.00007202
         2         1         5         5         5         4     -0.00000000
         2         1         5         5         5         5     -0.00016130
         2         1         6         6         1         1     -0.00052563
         2         1         6         6         1         2      0.00077400
         2         1         6         6         1         3      0.00001559
         2         1         6         6         2         1      0.00049242
         2         1         6         6         2         2     -0.00056889
         2         1         6         6         2         3      0.00000808
         2         1         6         6         3         1     -0.00010662
         2         1         6         6         3         2      0.00012342
         2         1         6         6         3         3     -0.00011239
         2         1         7         7         1         1     -0.00052563
         2         1         7         7         1         2      0.00077400
         2         1         7         7         1         3      0.00001559
         2         1         7         7         2         1      0.00049242
         2         1         7         7         2         2     -0.00056889
         2         1         7         7         2         3      0.00000808
         2         1         7         7         3         1     -0.00010662
         2         1         7         7         3         2      0.00012342
         2         1         7         7         3         3     -0.00011239
         2         1         8         8         1         1     -0.00011841
         2         2         1         1         1         1     -0.00439746
         2         2         1         1         1         2      0.00269372
         2         2         1         1         1         3     -0.00000000
         2         2         1         1         1         4      0.00189496
         2         2         1         1         2         1      0.00269372
         2         2         1         1         2         2     -0.01205940
         2         2         1         1         2         3      0.00000000
         2         2         1         1         2         4      0.00093859
         2         2         1         1         3         1     -0.00000000
         2         2         1         1         3         2      0.00000000
         2         2         1         1         3         3     -0.00531147
         2         2         1         1         3         4      0.00000000
         2         2         1         1         4         1      0.00189496
         2         2         1         1         4         2      0.00093859
         2         2         1         1         4         3      0.00000000
         2         2         1         1         4         4     -0.00738711
         2         2         2         2         1         1     -0.00565690
         2         2         2         2         1         2     -0.00003040
         2         2         2         2         2         1     -0.00003040
         2         2         2         2         2         2     -0.00814772
         2         2         3         3         1         1     -0.00565690
         2         2         3         3         1         2     -0.00003040
         2         2         3         3         2         1     -0.00003040
         2         2         3         3         2         2     -0.00814772
         2         2         4         4         1         1     -0.00531147
         2         2         5         5         1         1     -0.03041916
         2         2         5         5         1         2      0.00729749
         2         2         5         5         1         3      0.00997579
         2         2         5         5         1         4      0.00000000
         2         2         5         5         1         5     -0.00287588
         2         2         5         5         2         1      0.00729749
         2         2         5         5         2         2     -0.00434421
         2         2         5         5         2         3     -0.00158885
         2         2         5         5         2         4     -0.00000000
         2         2         5         5         2         5      0.00203630
         2         2         5         5         3         1      0.00997579
         2         2         5         5         3         2     -0.00158885
         2         2         5         5         3         3     -0.00735717
         2         2         5         5         3         4     -0.00000000
         2         2         5         5         3         5      0.00214911
         2         2         5         5         4         1      0.00000000
         2         2         5         5         4         2     -0.00000000
         2         2         5         5         4         3     -0.00000000
         2         2         5         5         4         4     -0.00537232
         2         2         5         5         4         5     -0.00000000
         2         2         5         5         5         1     -0.00287588
         2         2         5         5         5         2      0.00203630
         2         2         5         5         5         3      0.00214911
         2         2         5         5         5         4     -0.00000000
         2         2         5         5         5         5     -0.00344373
         2         2         6         6         1         1     -0.01486838
         2         2         6         6         1         2      0.00746064
         2         2         6         6         1         3     -0.00340761
         2         2         6         6         2         1      0.00746064
         2         2         6         6         2         2     -0.00502643
         2         2         6         6         2         3      0.00216526
         2         2         6         6         3         1     -0.00340761
         2         2         6         6         3         2      0.00216526
         2         2         6         6         3         3     -0.00465548
         2         2         7         7         1         1     -0.01486838
         2         2         7         7         1         2      0.00746064
         2         2         7         7         1         3     -0.00340761
         2         2         7         7         2         1      0.00746064
         2         2         7         7         2         2     -0.00502643
         2         2         7         7         2         3      0.00216526
         2         2         7         7         3         1     -0.00340761
         2         2         7         7         3         2      0.00216526
         2         2         7         7         3         3     -0.00465548
         2         2         8         8         1         1     -0.00537232
         3         1         1         1         1         1      0.00009338
         3         1         1         1         1         2      0.00034174
         3         1         1         1         1         3     -0.00000000
         3         1         1         1         1         4      0.00029102
         3         1         1         1         2         1     -0.00045840
         3         1         1         1         2         2     -0.00026003
         3         1         1         1         2         3     -0.00000000
         3         1         1         1         2         4     -0.00015372
         3         1         1         1         3         1     -0.00000000
         3         1         1         1         3         2      0.00000000
         3         1         1         1         3         3      0.00002561
         3         1         1         1         3         4      0.00000000
         3         1         1         1         4         1      0.00028050
         3         1         1         1         4         2      0.00036722
         3         1         1         1         4         3     -0.00000000
         3         1         1         1         4         4      0.00029962
         3         1         2         2         1         1      0.00017469
         3         1         2         2         1         2      0.00008735
         3         1         2         2         2         1      0.00058881
         3         1         2         2         2         2      0.00004302
         3         1         3         3         1         1      0.00017469
         3         1         3         3         1         2      0.00008735
         3         1         3         3         2         1      0.00058881
         3         1         3         3         2         2      0.00004302
         3         1         4         4         1         1      0.00002561
         3         1         5         5         1         1     -0.00005320
         3         1         5         5         1         2     -0.00003846
         3         1         5         5         1         3      0.00002948
         3         1         5         5         1         4     -0.00000000
         3         1         5         5         1         5     -0.00015354
         3         1         5         5         2         1     -0.00041500
         3         1         5         5         2         2      0.00026679
         3         1         5         5         2         3      0.00022327
         3         1         5         5         2         4      0.00000000
         3         1         5         5         2         5      0.00006757
         3         1         5         5         3         1      0.00058105
         3         1         5         5         3         2     -0.00056193
         3         1         5         5         3         3     -0.00012332
         3         1         5         5         3         4      0.00000000
         3         1         5         5         3         5      0.00011772
         3         1         5         5         4         1      0.00000000
         3         1         5         5         4         2      0.00000000
         3         1         5         5         4         3      0.00000000
         3         1         5         5         4         4      0.00004026
         3         1         5         5         4         5      0.00000000
         3         1         5         5         5         1     -0.00050589
         3         1         5         5         5         2      0.00053579
         3         1         5         5         5         3      0.00007562
         3         1         5         5         5         4      0.00000000
         3         1         5         5         5         5     -0.00006853
         3         1         6         6         1         1      0.00016916
         3         1         6         6         1         2     -0.00023621
         3         1         6         6         1         3     -0.00015891
         3         1         6         6         2         1     -0.00005212
         3         1         6         6         2         2      0.00008328
         3         1         6         6         2         3      0.00009508
         3         1         6         6         3         1     -0.00054651
         3         1         6         6         3         2      0.00053426
         3         1         6         6         3         3      0.00007082
         3         1         7         7         1         1      0.00016916
         3         1         7         7         1         2     -0.00023621
         3         1         7         7         1         3     -0.00015891
         3         1         7         7         2         1     -0.00005212
         3         1         7         7         2         2      0.00008328
         3         1         7         7         2         3      0.00009508
         3         1         7         7         3         1     -0.00054651
         3         1         7         7         3         2      0.00053426
         3         1         7         7         3         3      0.00007082
         3         1         8         8         1         1      0.00004026
         3         2         1         1         1         1      0.00966046
         3         2         1         1         1         2     -0.00647553
         3         2         1         1         1         3     -0.00000000
         3         2         1         1         1         4      0.00040716
         3         2         1         1         2         1      0.00073111
         3         2         1         1         2         2     -0.00869041
         3         2         1         1         2         3     -0.00000000
         3         2         1         1         2         4      0.00099762
         3         2         1         1         3         1     -0.00000000
         3         2         1         1         3         2      0.00000000
         3         2         1         1         3         3      0.00109907
         3         2         1         1         3         4     -0.00000000
         3         2         1         1         4         1      0.00310952
         3         2         1         1         4         2      0.00050654
         3         2         1         1         4         3      0.00000000
         3         2         1         1         4         4     -0.00232133
         3         2         2         2         1         1      0.00186010
         3         2         2         2         1         2      0.00164251
         3         2         2         2         2         1      0.00291434
         3         2         2         2         2         2     -0.00226352
         3         2         3         3         1         1      0.00186010
         3         2         3         3         1         2      0.00164251
         3         2         3         3         2         1      0.00291434
         3         2         3         3         2         2     -0.00226352
         3         2         4         4         1         1      0.00109907
         3         2         5         5         1         1     -0.02513473
         3         2         5         5         1         2      0.00456564
         3         2         5         5         1         3      0.01271225
         3         2         5         5         1         4      0.00000000
         3         2         5         5         1         5     -0.00641248
         3         2         5         5         2         1      0.01233365
         3         2         5         5         2         2      0.00411921
         3         2         5         5         2         3     -0.00950997
         3         2         5         5         2         4     -0.00000000
         3         2         5         5         2         5      0.00167421
         3         2         5         5         3         1      0.01195457
         3         2         5         5         3         2     -0.00536861
         3         2         5         5         3         3     -0.00153732
         3         2         5         5         3         4      0.00000000
         3         2         5         5         3         5      0.00110348
         3         2         5         5         4         1     -0.00000000
         3         2         5         5         4         2      0.00000000
         3         2         5         5         4         3      0.00000000
         3         2         5         5         4         4      0.00186871
         3         2         5         5         4         5      0.00000000
         3         2         5         5         5         1     -0.01135495
         3         2         5         5         5         2      0.00339010
         3         2         5         5         5         3      0.00194916
         3         2         5         5         5         4      0.00000000
         3         2         5         5         5         5      0.00025135
         3         2         6         6         1         1      0.00894024
         3         2         6         6         1         2     -0.00044563
         3         2         6         6         1         3     -0.00580137
         3         2         6         6         2         1      0.00171038
         3         2         6         6         2         2      0.00049397
         3         2         6         6         2         3      0.00167562
         3         2         6         6         3         1     -0.01235498
         3         2         6         6         3         2      0.00329377
         3         2         6         6         3         3      0.00074569
         3         2         7         7         1         1      0.00894024
         3         2         7         7         1         2     -0.00044563
         3         2         7         7         1         3     -0.00580137
         3         2         7         7         2         1      0.00171038
         3         2         7         7         2         2      0.00049397
         3         2         7         7         2         3      0.00167562
         3         2         7         7         3         1     -0.01235498
         3         2         7         7         3         2      0.00329377
         3         2         7         7         3         3      0.00074569
         3         2         8         8         1         1      0.00186871
         3         3         1         1         1         1     -0.02118819
         3         3         1         1         1         2     -0.00406593
         3         3         1         1         1         3     -0.00000000
         3         3         1         1         1         4     -0.00327877
         3         3         1         1         2         1     -0.00406593
         3         3         1         1         2         2     -0.00870134
         3         3         1         1         2         3     -0.00000000
         3         3         1         1         2         4      0.00725494
         3         3         1         1         3         1     -0.00000000
         3         3         1         1         3         2     -0.00000000
         3         3         1         1         3         3     -0.00103997
         3         3         1         1         3         4     -0.00000000
         3         3         1         1         4         1     -0.00327877
         3         3         1         1         4         2      0.00725494
         3         3         1         1         4         3     -0.00000000
         3         3         1         1         4         4     -0.01196830
         3         3         2         2         1         1     -0.00189434
         3         3         2         2         1         2     -0.00268931
         3         3         2         2         2         1     -0.00268931
         3         3         2         2         2         2     -0.01335531
         3         3         3         3         1         1     -0.00189434
         3         3         3         3         1         2     -0.00268931
         3         3         3         3         2         1     -0.00268931
         3         3         3         3         2         2     -0.01335531
         3         3         4         4         1         1     -0.00103997
         3         3         5         5         1         1     -0.08339792
         3         3         5         5         1         2      0.02941796
         3         3         5         5         1         3     -0.00008846
         3         3         5         5         1         4     -0.00000000
         3         3         5         5         1         5      0.00240725
         3         3         5         5         2         1      0.02941796
         3         3         5         5         2         2     -0.02809485
         3         3         5         5         2         3      0.00257533
         3         3         5         5         2         4      0.00000000
         3         3         5         5         2         5      0.00009615
         3         3         5         5         3         1     -0.00008846
         3         3         5         5         3         2      0.00257533
         3         3         5         5         3         3     -0.00394943
         3         3         5         5         3         4     -0.00000000
         3         3         5         5         3         5      0.00405181
         3         3         5         5         4         1     -0.00000000
         3         3         5         5         4         2      0.00000000
         3         3         5         5         4         3     -0.00000000
         3         3         5         5         4         4     -0.00080538
         3         3         5         5         4         5     -0.00000000
         3         3         5         5         5         1      0.00240725
         3         3         5         5         5         2      0.00009615
         3         3         5         5         5         3      0.00405181
         3         3         5         5         5         4     -0.00000000
         3         3         5         5         5         5     -0.00582024
         3         3         6         6         1         1     -0.03456734
         3         3         6         6         1         2      0.00338832
         3         3         6         6         1         3      0.00929953
         3         3         6         6         2         1      0.00338832
         3         3         6         6         2         2     -0.00192395
         3         3         6         6         2         3     -0.00058543
         3         3         6         6         3         1      0.00929953
         3         3         6         6         3         2     -0.00058543
         3         3         6         6         3         3     -0.00629451
         3         3         7         7         1         1     -0.03456734
         3         3         7         7         1         2      0.00338832
         3         3         7         7         1         3      0.00929953
         3         3         7         7         2         1      0.00338832
         3         3         7         7         2         2     -0.00192395
         3         3         7         7         2         3     -0.00058543
         3         3         7         7         3         1      0.00929953
         3         3         7         7         3         2     -0.00058543
         3         3         7         7         3         3     -0.00629451
         3         3         8         8         1         1     -0.00080538
         4         4         1         1         1         1     -0.00341005
         4         4         1         1         1         2      0.00245593
         4         4         1         1         1         3     -0.00154975
         4         4         1         1         1         4      0.00156767
         4         4         1         1         2         1      0.00245593
         4         4         1         1         2         2     -0.00757182
         4         4         1         1         2         3     -0.00339690
         4         4         1         1         2         4     -0.00015790
         4         4         1         1         3         1     -0.00154975
         4         4         1         1         3         2     -0.00339690
         4         4         1         1         3         3     -0.00844446
         4         4         1         1         3         4      0.00345226
         4         4         1         1         4         1      0.00156767
         4         4         1         1         4         2     -0.00015790
         4         4         1         1         4         3      0.00345226
         4         4         1         1         4         4     -0.00279761
         4         4         2         2         1         1     -0.01832421
         4         4         2         2         1         2      0.00095428
         4         4         2         2         2         1      0.00095428
         4         4         2         2         2         2     -0.01081900
         4         4         3         3         1         1     -0.00086410
         4         4         3         3         1         2     -0.00013355
         4         4         3         3         2         1     -0.00013355
         4         4         3         3         2         2     -0.00068977
         4         4         4         4         1         1     -0.00844446
         4         4         5         5         1         1     -0.02323553
         4         4         5         5         1         2      0.00304432
         4         4         5         5         1         3      0.00155603
         4         4         5         5         1         4     -0.00501893
         4         4         5         5         1         5      0.00078173
         4         4         5         5         2         1      0.00304432
         4         4         5         5         2         2     -0.00178678
         4         4         5         5         2         3      0.00089550
         4         4         5         5         2         4     -0.00053265
         4         4         5         5         2         5      0.00068028
         4         4         5         5         3         1      0.00155603
         4         4         5         5         3         2      0.00089550
         4         4         5         5         3         3     -0.00318219
         4         4         5         5         3         4     -0.00034060
         4         4         5         5         3         5     -0.00040285
         4         4         5         5         4         1     -0.00501893
         4         4         5         5         4         2     -0.00053265
         4         4         5         5         4         3     -0.00034060
         4         4         5         5         4         4     -0.00547200
         4         4         5         5         4         5      0.00198094
         4         4         5         5         5         1      0.00078173
         4         4         5         5         5         2      0.00068028
         4         4         5         5         5         3     -0.00040285
         4         4         5         5         5         4      0.00198094
         4         4         5         5         5         5     -0.00110646
         4         4         6         6         1         1     -0.23697714
         4         4         6         6         1         2      0.03514437
         4         4         6         6         1         3     -0.00408947
         4         4         6         6         2         1      0.03514437
         4         4         6         6         2         2     -0.01410700
         4         4         6         6         2         3      0.00122978
         4         4         6         6         3         1     -0.00408947
         4         4         6         6         3         2      0.00122978
         4         4         6         6         3         3     -0.00453186
         4         4         7         7         1         1     -0.03646996
         4         4         7         7         1         2      0.00433950
         4         4         7         7         1         3     -0.00091434
         4         4         7         7         2         1      0.00433950
         4         4         7         7         2         2     -0.00071945
         4         4         7         7         2         3      0.00005212
         4         4         7         7         3         1     -0.00091434
         4         4         7         7         3         2      0.00005212
         4         4         7         7         3         3     -0.00018976
         4         4         8         8         1         1     -0.00547200
         5         5         1         1         1         1     -0.00341005
         5         5         1         1         1         2      0.00245593
         5         5         1         1         1         3      0.00154975
         5         5         1         1         1         4      0.00156767
         5         5         1         1         2         1      0.00245593
         5         5         1         1         2         2     -0.00757182
         5         5         1         1         2         3      0.00339690
         5         5         1         1         2         4     -0.00015790
         5         5         1         1         3         1      0.00154975
         5         5         1         1         3         2      0.00339690
         5         5         1         1         3         3     -0.00844446
         5         5         1         1         3         4     -0.00345226
         5         5         1         1         4         1      0.00156767
         5         5         1         1         4         2     -0.00015790
         5         5         1         1         4         3     -0.00345226
         5         5         1         1         4         4     -0.00279761
         5         5         2         2         1         1     -0.00086410
         5         5         2         2         1         2     -0.00013355
         5         5         2         2         2         1     -0.00013355
         5         5         2         2         2         2     -0.00068977
         5         5         3         3         1         1     -0.01832421
         5         5         3         3         1         2      0.00095428
         5         5         3         3         2         1      0.00095428
         5         5         3         3         2         2     -0.01081900
         5         5         4         4         1         1     -0.00844446
         5         5         5         5         1         1     -0.02323553
         5         5         5         5         1         2      0.00304432
         5         5         5         5         1         3      0.00155603
         5         5         5         5         1         4      0.00501893
         5         5         5         5         1         5      0.00078173
         5         5         5         5         2         1      0.00304432
         5         5         5         5         2         2     -0.00178678
         5         5         5         5         2         3      0.00089550
         5         5         5         5         2         4      0.00053265
         5         5         5         5         2         5      0.00068028
         5         5         5         5         3         1      0.00155603
         5         5         5         5         3         2      0.00089550
         5         5         5         5         3         3     -0.00318219
         5         5         5         5         3         4      0.00034060
         5         5         5         5         3         5     -0.00040285
         5         5         5         5         4         1      0.00501893
         5         5         5         5         4         2      0.00053265
         5         5         5         5         4         3      0.00034060
         5         5         5         5         4         4     -0.00547200
         5         5         5         5         4         5     -0.00198094
         5         5         5         5         5         1      0.00078173
         5         5         5         5         5         2      0.00068028
         5         5         5         5         5         3     -0.00040285
         5         5         5         5         5         4     -0.00198094
         5         5         5         5         5         5     -0.00110646
         5         5         6         6         1         1     -0.03646996
         5         5         6         6         1         2      0.00433950
         5         5         6         6         1         3     -0.00091434
         5         5         6         6         2         1      0.00433950
         5         5         6         6         2         2     -0.00071945
         5         5         6         6         2         3      0.00005212
         5         5         6         6         3         1     -0.00091434
         5         5         6         6         3         2      0.00005212
         5         5         6         6         3         3     -0.00018976
         5         5         7         7         1         1     -0.23697714
         5         5         7         7         1         2      0.03514437
         5         5         7         7         1         3     -0.00408947
         5         5         7         7         2         1      0.03514437
         5         5         7         7         2         2     -0.01410700
         5         5         7         7         2         3      0.00122978
         5         5         7         7         3         1     -0.00408947
         5         5         7         7         3         2      0.00122978
         5         5         7         7         3         3     -0.00453186
         5         5         8         8         1         1     -0.00547200
         6         6         1         1         1         1     -0.00060531
         6         6         1         1         1         2      0.00009501
         6         6         1         1         1         3     -0.00000000
         6         6         1         1         1         4     -0.00002606
         6         6         1         1         2         1      0.00009501
         6         6         1         1         2         2     -0.00050480
         6         6         1         1         2         3      0.00000000
         6         6         1         1         2         4     -0.00031478
         6         6         1         1         3         1     -0.00000000
         6         6         1         1         3         2      0.00000000
         6         6         1         1         3         3      0.00000346
         6         6         1         1         3         4      0.00000000
         6         6         1         1         4         1     -0.00002606
         6         6         1         1         4         2     -0.00031478
         6         6         1         1         4         3      0.00000000
         6         6         1         1         4         4     -0.00019326
         6         6         2         2         1         1     -0.00059668
         6         6         2         2         1         2     -0.00002594
         6         6         2         2         2         1     -0.00002594
         6         6         2         2         2         2      0.00000883
         6         6         3         3         1         1     -0.00059668
         6         6         3         3         1         2     -0.00002594
         6         6         3         3         2         1     -0.00002594
         6         6         3         3         2         2      0.00000883
         6         6         4         4         1         1      0.00000346
         6         6         5         5         1         1     -0.00051359
         6         6         5         5         1         2      0.00033963
         6         6         5         5         1         3      0.00039677
         6         6         5         5         1         4      0.00000000
         6         6         5         5         1         5     -0.00008159
         6         6         5         5         2         1      0.00033963
         6         6         5         5         2         2     -0.00061587
         6         6         5         5         2         3      0.00004986
         6         6         5         5         2         4      0.00000000
         6         6         5         5         2         5      0.00010333
         6         6         5         5         3         1      0.00039677
         6         6         5         5         3         2      0.00004986
         6         6         5         5         3         3     -0.00046401
         6         6         5         5         3         4      0.00000000
         6         6         5         5         3         5      0.00000761
         6         6         5         5         4         1      0.00000000
         6         6         5         5         4         2      0.00000000
         6         6         5         5         4         3      0.00000000
         6         6         5         5         4         4      0.00000092
         6         6         5         5         4         5     -0.00000000
         6         6         5         5         5         1     -0.00008159
         6         6         5         5         5         2      0.00010333
         6         6         5         5         5         3      0.00000761
         6         6         5         5         5         4     -0.00000000
         6         6         5         5         5         5     -0.00002809
         6         6         6         6         1         1     -0.00024209
         6         6         6         6         1         2      0.00047480
         6         6         6         6         1         3      0.00002835
         6         6         6         6         2         1      0.00047480
         6         6         6         6         2         2     -0.00060170
         6         6         6         6         2         3     -0.00004170
         6         6         6         6         3         1      0.00002835
         6         6         6         6         3         2     -0.00004170
         6         6         6         6         3         3     -0.00000436
         6         6         7         7         1         1     -0.00024209
         6         6         7         7         1         2      0.00047480
         6         6         7         7         1         3      0.00002835
         6         6         7         7         2         1      0.00047480
         6         6         7         7         2         2     -0.00060170
         6         6         7         7         2         3     -0.00004170
         6         6         7         7         3         1      0.00002835
         6         6         7         7         3         2     -0.00004170
         6         6         7         7         3         3     -0.00000436
         6         6         8         8         1         1      0.00000092
         7         6         1         1         1         1     -0.00016400
         7         6         1         1         1         2     -0.00041162
         7         6         1         1         1         3     -0.00000000
         7         6         1         1         1         4     -0.00027144
         7         6         1         1         2         1     -0.00018589
         7         6         1         1         2         2      0.00002162
         7         6         1         1         2         3      0.00000000
         7         6         1         1         2         4      0.00000701
         7         6         1         1         3         1      0.00000000
         7         6         1         1         3         2     -0.00000000
         7         6         1         1         3         3     -0.00012462
         7         6         1         1         3         4     -0.00000000
         7         6         1         1         4         1     -0.00025624
         7         6         1         1         4         2     -0.00012084
         7         6         1         1         4         3      0.00000000
         7         6         1         1         4         4     -0.00024300
         7         6         2         2         1         1     -0.00062777
         7         6         2         2         1         2     -0.00005010
         7         6         2         2         2         1     -0.00020347
         7         6         2         2         2         2     -0.00012058
         7         6         3         3         1         1     -0.00062777
         7         6         3         3         1         2     -0.00005010
         7         6         3         3         2         1     -0.00020347
         7         6         3         3         2         2     -0.00012058
         7         6         4         4         1         1     -0.00012462
         7         6         5         5         1         1     -0.00059532
         7         6         5         5         1         2      0.00081182
         7         6         5         5         1         3      0.00007058
         7         6         5         5         1         4     -0.00000000
         7         6         5         5         1         5     -0.00008645
         7         6         5         5         2         1      0.00063555
         7         6         5         5         2         2     -0.00056604
         7         6         5         5         2         3     -0.00024905
         7         6         5         5         2         4      0.00000000
         7         6         5         5         2         5      0.00007828
         7         6         5         5         3         1     -0.00013040
         7         6         5         5         3         2     -0.00007329
         7         6         5         5         3         3      0.00017070
         7         6         5         5         3         4      0.00000000
         7         6         5         5         3         5      0.00003137
         7         6         5         5         4         1     -0.00000000
         7         6         5         5         4         2      0.00000000
         7         6         5         5         4         3      0.00000000
         7         6         5         5         4         4     -0.00009989
         7         6         5         5         4         5     -0.00000000
         7         6         5         5         5         1      0.00004096
         7         6         5         5         5         2     -0.00003894
         7         6         5         5         5         3      0.00002407
         7         6         5         5         5         4     -0.00000000
         7         6         5         5         5         5     -0.00010265
         7         6         6         6         1         1     -0.00065392
         7         6         6         6         1         2      0.00090252
         7         6         6         6         1         3      0.00009030
         7         6         6         6         2         1      0.00050367
         7         6         6         6         2         2     -0.00058824
         7         6         6         6         2         3     -0.00004462
         7         6         6         6         3         1      0.00013289
         7         6         6         6         3         2     -0.00012521
         7         6         6         6         3         3     -0.00011380
         7         6         7         7         1         1     -0.00065392
         7         6         7         7         1         2      0.00090252
         7         6         7         7         1         3      0.00009030
         7         6         7         7         2         1      0.00050367
         7         6         7         7         2         2     -0.00058824
         7         6         7         7         2         3     -0.00004462
         7         6         7         7         3         1      0.00013289
         7         6         7         7         3         2     -0.00012521
         7         6         7         7         3         3     -0.00011380
         7         6         8         8         1         1     -0.00009989
         7         7         1         1         1         1     -0.01425091
         7         7         1         1         1         2      0.00343505
         7         7         1         1         1         3      0.00000000
         7         7         1         1         1         4      0.00022176
         7         7         1         1         2         1      0.00343505
         7         7         1         1         2         2     -0.00369153
         7         7         1         1         2         3     -0.00000000
         7         7         1         1         2         4      0.00140370
         7         7         1         1         3         1      0.00000000
         7         7         1         1         3         2     -0.00000000
         7         7         1         1         3         3     -0.00679447
         7         7         1         1         3         4     -0.00000000
         7         7         1         1         4         1      0.00022176
         7         7         1         1         4         2      0.00140370
         7         7         1         1         4         3     -0.00000000
         7         7         1         1         4         4     -0.00732376
         7         7         2         2         1         1     -0.00641308
         7         7         2         2         1         2     -0.00235604
         7         7         2         2         2         1     -0.00235604
         7         7         2         2         2         2     -0.00785745
         7         7         3         3         1         1     -0.00641308
         7         7         3         3         1         2     -0.00235604
         7         7         3         3         2         1     -0.00235604
         7         7         3         3         2         2     -0.00785745
         7         7         4         4         1         1     -0.00679447
         7         7         5         5         1         1     -0.02677529
         7         7         5         5         1         2      0.00571468
         7         7         5         5         1         3      0.00065621
         7         7         5         5         1         4      0.00000000
         7         7         5         5         1         5      0.00476713
         7         7         5         5         2         1      0.00571468
         7         7         5         5         2         2     -0.01318915
         7         7         5         5         2         3      0.00596804
         7         7         5         5         2         4      0.00000000
         7         7         5         5         2         5     -0.00019019
         7         7         5         5         3         1      0.00065621
         7         7         5         5         3         2      0.00596804
         7         7         5         5         3         3     -0.00672283
         7         7         5         5         3         4     -0.00000000
         7         7         5         5         3         5      0.00079798
         7         7         5         5         4         1      0.00000000
         7         7         5         5         4         2      0.00000000
         7         7         5         5         4         3     -0.00000000
         7         7         5         5         4         4     -0.00558550
         7         7         5         5         4         5      0.00000000
         7         7         5         5         5         1      0.00476713
         7         7         5         5         5         2     -0.00019019
         7         7         5         5         5         3      0.00079798
         7         7         5         5         5         4      0.00000000
         7         7         5         5         5         5     -0.00387448
         7         7         6         6         1         1     -0.04308740
         7         7         6         6         1         2      0.00962005
         7         7         6         6         1         3      0.00583635
         7         7         6         6         2         1      0.00962005
         7         7         6         6         2         2     -0.00571035
         7         7         6         6         2         3     -0.00070403
         7         7         6         6         3         1      0.00583635
         7         7         6         6         3         2     -0.00070403
         7         7         6         6         3         3     -0.00519403
         7         7         7         7         1         1     -0.04308740
         7         7         7         7         1         2      0.00962005
         7         7         7         7         1         3      0.00583635
         7         7         7         7         2         1      0.00962005
         7         7         7         7         2         2     -0.00571035
         7         7         7         7         2         3     -0.00070403
         7         7         7         7         3         1      0.00583635
         7         7         7         7         3         2     -0.00070403
         7         7         7         7         3         3     -0.00519403
         7         7         8         8         1         1     -0.00558550
         4         1         1         2         1         1      0.00038277
         4         1         1         2         1         2      0.00006783
         4         1         1         2         2         1     -0.00019136
         4         1         1         2         2         2      0.00001884
         4         1         1         2         3         1      0.00056531
         4         1         1         2         3         2      0.00001913
         4         1         1         2         4         1     -0.00042932
         4         1         1         2         4         2      0.00000584
         4         1         2         1         1         1     -0.00020853
         4         1         2         1         1         2      0.00015690
         4         1         2         1         1         3      0.00007592
         4         1         2         1         1         4      0.00001974
         4         1         2         1         2         1      0.00038577
         4         1         2         1         2         2      0.00035028
         4         1         2         1         2         3      0.00000509
         4         1         2         1         2         4      0.00023965
         4         1         3         4         1         1      0.00007592
         4         1         3         4         2         1      0.00000509
         4         1         4         3         1         1      0.00056531
         4         1         4         3         1         2      0.00001913
         4         1         5         6         1         1     -0.00049593
         4         1         5         6         1         2      0.00039529
         4         1         5         6         1         3     -0.00012539
[...]
         6         4         2         5         1         4      0.00051191
         6         4         2         5         1         5     -0.00030716
         6         4         2         5         2         1     -0.00009870
         6         4         2         5         2         2      0.00009179
         6         4         2         5         2         3      0.00000213
         6         4         2         5         2         4      0.00002823
         6         4         2         5         2         5     -0.00003780
         6         4         3         8         1         1      0.00051191
         6         4         3         8         2         1      0.00002823
         6         4         4         7         1         1     -0.00015193
         6         4         4         7         1         2      0.00008248
         6         4         4         7         1         3     -0.00000153
         6         4         5         2         1         1     -0.00010634
         6         4         5         2         1         2     -0.00060350
         6         4         5         2         2         1     -0.00011714
         6         4         5         2         2         2      0.00058369
         6         4         5         2         3         1      0.00020935
         6         4         5         2         3         2      0.00013956
         6         4         5         2         4         1      0.00007786
         6         4         5         2         4         2      0.00000036
         6         4         5         2         5         1     -0.00002826
         6         4         5         2         5         2     -0.00011892
         6         4         6         1         1         1     -0.00048626
         6         4         6         1         1         2      0.00026384
         6         4         6         1         1         3     -0.00059910
         6         4         6         1         1         4      0.00052472
         6         4         6         1         2         1      0.00039406
         6         4         6         1         2         2     -0.00020715
         6         4         6         1         2         3      0.00057110
         6         4         6         1         2         4     -0.00044147
         6         4         6         1         3         1      0.00007094
         6         4         6         1         3         2      0.00002945
         6         4         6         1         3         3      0.00002331
         6         4         6         1         3         4      0.00000743
         6         4         7         4         1         1     -0.00059910
         6         4         7         4         2         1      0.00057110
         6         4         7         4         3         1      0.00002331
         6         4         8         3         1         1      0.00007786
         6         4         8         3         1         2      0.00000036
         7         4         1         6         1         1     -0.01607910
         7         4         1         6         1         2      0.01256304
         7         4         1         6         1         3      0.00211609
         7         4         1         6         2         1      0.00646424
         7         4         1         6         2         2     -0.00610857
         7         4         1         6         2         3     -0.00078189
         7         4         1         6         3         1     -0.01058490
         7         4         1         6         3         2      0.00200206
         7         4         1         6         3         3      0.00003964
         7         4         1         6         4         1      0.00955693
         7         4         1         6         4         2     -0.00370764
         7         4         1         6         4         3      0.00267844
         7         4         2         5         1         1      0.00508994
         7         4         2         5         1         2      0.00309338
         7         4         2         5         1         3     -0.00408476
         7         4         2         5         1         4      0.00373103
         7         4         2         5         1         5     -0.00216104
         7         4         2         5         2         1     -0.00590402
         7         4         2         5         2         2      0.00278139
         7         4         2         5         2         3      0.00069577
         7         4         2         5         2         4      0.00274645
         7         4         2         5         2         5     -0.00128188
         7         4         3         8         1         1      0.00373103
         7         4         3         8         2         1      0.00274645
         7         4         4         7         1         1     -0.01058490
         7         4         4         7         1         2      0.00200206
         7         4         4         7         1         3      0.00003964
         7         4         5         2         1         1      0.00612949
         7         4         5         2         1         2     -0.01749214
         7         4         5         2         2         1      0.01043506
         7         4         5         2         2         2      0.00512291
         7         4         5         2         3         1     -0.01120301
         7         4         5         2         3         2      0.00047038
         7         4         5         2         4         1      0.00152017
         7         4         5         2         4         2      0.00047854
         7         4         5         2         5         1     -0.00207331
         7         4         5         2         5         2      0.00015189
         7         4         6         1         1         1     -0.01118206
         7         4         6         1         1         2     -0.00314784
         7         4         6         1         1         3     -0.02134939
         7         4         6         1         1         4      0.01387027
         7         4         6         1         2         1      0.00642187
         7         4         6         1         2         2     -0.00331806
         7         4         6         1         2         3      0.00373790
         7         4         6         1         2         4     -0.00317954
         7         4         6         1         3         1      0.00133581
         7         4         6         1         3         2     -0.00076644
         7         4         6         1         3         3      0.00063881
         7         4         6         1         3         4     -0.00003654
         7         4         7         4         1         1     -0.02134939
         7         4         7         4         2         1      0.00373790
         7         4         7         4         3         1      0.00063881
         7         4         8         3         1         1      0.00152017
         7         4         8         3         1         2      0.00047854
         6         5         1         7         1         1     -0.00017994
         6         5         1         7         1         2     -0.00017527
         6         5         1         7         1         3      0.00031026
         6         5         1         7         2         1     -0.00001069
         6         5         1         7         2         2      0.00013646
         6         5         1         7         2         3      0.00029083
         6         5         1         7         3         1      0.00015193
         6         5         1         7         3         2     -0.00008248
         6         5         1         7         3         3      0.00000153
         6         5         1         7         4         1      0.00010487
         6         5         1         7         4         2     -0.00000286
         6         5         1         7         4         3      0.00022999
         6         5         2         8         1         1      0.00051191
         6         5         2         8         2         1      0.00002823
         6         5         3         5         1         1      0.00036243
         6         5         3         5         1         2      0.00015416
         6         5         3         5         1         3     -0.00033110
         6         5         3         5         1         4     -0.00051191
         6         5         3         5         1         5     -0.00030716
         6         5         3         5         2         1     -0.00009870
         6         5         3         5         2         2      0.00009179
         6         5         3         5         2         3      0.00000213
         6         5         3         5         2         4     -0.00002823
         6         5         3         5         2         5     -0.00003780
         6         5         4         6         1         1     -0.00015193
         6         5         4         6         1         2      0.00008248
         6         5         4         6         1         3     -0.00000153
         6         5         5         3         1         1     -0.00010634
         6         5         5         3         1         2     -0.00060350
         6         5         5         3         2         1     -0.00011714
         6         5         5         3         2         2      0.00058369
         6         5         5         3         3         1      0.00020935
         6         5         5         3         3         2      0.00013956
         6         5         5         3         4         1     -0.00007786
         6         5         5         3         4         2     -0.00000036
         6         5         5         3         5         1     -0.00002826
         6         5         5         3         5         2     -0.00011892
         6         5         6         4         1         1     -0.00059910
         6         5         6         4         2         1      0.00057110
         6         5         6         4         3         1      0.00002331
         6         5         7         1         1         1     -0.00048626
         6         5         7         1         1         2      0.00026384
         6         5         7         1         1         3      0.00059910
         6         5         7         1         1         4      0.00052472
         6         5         7         1         2         1      0.00039406
         6         5         7         1         2         2     -0.00020715
         6         5         7         1         2         3     -0.00057110
         6         5         7         1         2         4     -0.00044147
         6         5         7         1         3         1      0.00007094
         6         5         7         1         3         2      0.00002945
         6         5         7         1         3         3     -0.00002331
         6         5         7         1         3         4      0.00000743
         6         5         8         2         1         1      0.00007786
         6         5         8         2         1         2      0.00000036
         7         5         1         7         1         1     -0.01607910
         7         5         1         7         1         2      0.01256304
         7         5         1         7         1         3      0.00211609
         7         5         1         7         2         1      0.00646424
         7         5         1         7         2         2     -0.00610857
         7         5         1         7         2         3     -0.00078189
         7         5         1         7         3         1      0.01058490
         7         5         1         7         3         2     -0.00200206
         7         5         1         7         3         3     -0.00003964
         7         5         1         7         4         1      0.00955693
         7         5         1         7         4         2     -0.00370764
         7         5         1         7         4         3      0.00267844
         7         5         2         8         1         1      0.00373103
         7         5         2         8         2         1      0.00274645
         7         5         3         5         1         1      0.00508994
         7         5         3         5         1         2      0.00309338
         7         5         3         5         1         3     -0.00408476
         7         5         3         5         1         4     -0.00373103
         7         5         3         5         1         5     -0.00216104
         7         5         3         5         2         1     -0.00590402
         7         5         3         5         2         2      0.00278139
         7         5         3         5         2         3      0.00069577
         7         5         3         5         2         4     -0.00274645
         7         5         3         5         2         5     -0.00128188
         7         5         4         6         1         1     -0.01058490
         7         5         4         6         1         2      0.00200206
         7         5         4         6         1         3      0.00003964
         7         5         5         3         1         1      0.00612949
         7         5         5         3         1         2     -0.01749214
         7         5         5         3         2         1      0.01043506
         7         5         5         3         2         2      0.00512291
         7         5         5         3         3         1     -0.01120301
         7         5         5         3         3         2      0.00047038
         7         5         5         3         4         1     -0.00152017
         7         5         5         3         4         2     -0.00047854
         7         5         5         3         5         1     -0.00207331
         7         5         5         3         5         2      0.00015189
         7         5         6         4         1         1     -0.02134939
         7         5         6         4         2         1      0.00373790
         7         5         6         4         3         1      0.00063881
         7         5         7         1         1         1     -0.01118206
         7         5         7         1         1         2     -0.00314784
         7         5         7         1         1         3      0.02134939
         7         5         7         1         1         4      0.01387027
         7         5         7         1         2         1      0.00642187
         7         5         7         1         2         2     -0.00331806
         7         5         7         1         2         3     -0.00373790
         7         5         7         1         2         4     -0.00317954
         7         5         7         1         3         1      0.00133581
         7         5         7         1         3         2     -0.00076644
         7         5         7         1         3         3     -0.00063881
         7         5         7         1         3         4     -0.00003654
         7         5         8         2         1         1      0.00152017
         7         5         8         2         1         2      0.00047854


 RESULTS
 =======

  Reference energy                   -108.589385802548

  Correlated core orbitals:             1.1       1.5
  Orbital energies:                   -15.7086  -15.7080

  BCCD core-core energy                -0.000668965129
  BCCD core-valence energy             -0.002790730509
  BCCD valence correlation energy      -0.446621207442

  BCCD singlet pair energy             -0.343506240804
  BCCD triplet pair energy             -0.106574662276
  BCCD correlation energy              -0.450080903080

 !BCCD total energy                  -109.039466705628

 Approximate expectation values using Brueckner orbitals

 !BCCD(ref) STATE  1.1 Dipole momen     0.00000000     0.00000000     0.00000000
 Dipole moment /Debye                   0.00000000     0.00000000     0.00000000

 Brueckner orbitals saved on record           2150.2 (orbital set 1)
 Brueckner density (ref) saved on record      2150.2 (density set 1)

 Brueckner orbitals
 ==================

   Orb     Occ           Coefficients

                         1 1s      1 1s      1 1s      1 2pz     1 2pz     1 3d0     1 3d2+ 

   1.1    2.0000000    1.000102 -0.000015 -0.000064  0.001999 -0.001347 -0.000182  0.000000

   2.1    2.0000000    0.001885  0.951836 -0.100758  0.213760 -0.050603  0.023861  0.000000

   3.1    2.0000000    0.005179 -0.231479 -0.151885  0.955821 -0.070135  0.033782 -0.000000

                         1 2px     1 2px     1 3d1+ 

   1.2    2.0000000    0.926515  0.000395  0.031667

                         1 2py     1 2py     1 3d1- 

   1.3    2.0000000    0.926515  0.000395  0.031667

                         1 1s      1 1s      1 1s      1 2pz     1 2pz     1 3d0     1 3d2+ 

   1.5    2.0000000    1.000368  0.000593 -0.003559  0.001504 -0.002852  0.000138 -0.000000

   2.5    2.0000000    0.014918  1.067876 -0.012844 -0.207377  0.027148 -0.011183 -0.000000

 Timing summary (sec):

 STEP                 CPU(USER)    SYS     CPU(TOT)    WALL
 Transformation          0.09      0.03      0.12      0.13
 CCSD iterations         0.14      0.04      0.18      0.17

 Program statistics:

 Available memory in ccsd:                39999004
 Min. memory needed in ccsd:                  7935
 Max. memory used in ccsd:                    9077
 Max. memory used in cckext:                 41129 (26 integral passes)



 **********************************************************************************************************************************
 DATASETS  * FILE   NREC   LENGTH (MB)   RECORD NAMES
              1      20       30.09       500      700      610      900      950      970     1000      129      960     1100   
                                          VAR     GEOM    BASINP   SYMINP    ZMAT    AOBASIS   BASIS     P2S    ABASIS      S 
                                         1400     1410     1200     1210     1080     1600     1650     1300     1700     1380   
                                           T        V       H0       H01     AOSYM     SMH    MOLCAS    ERIS     OPER     JKOP   

              2       4        2.75       700     1000      520     2150   
                                         GEOM     BASIS   MCVARS    BCCD   

              3       5       14.77       500      610      700     1000     2100   
                                          VAR    BASINP    GEOM     BASIS     RHF  

 PROGRAMS   *        TOTAL      BCCD       INT   RESTART
 CPU TIMES  *         0.54      0.31      0.14      0.01
 REAL TIME  *         0.73 SEC
 DISK USED  *        49.46 MB
 **********************************************************************************************************************************

 Dump information in style XML to orbitals.xml                                                                    

 Variables will not be exported.
 Molecular orbitals read from record     2150.2  Type=BCCD/BRUECKNER (state 1.1)
 Occupation numbers read from record     2150.2  Type=BCCD/BRUECKNER (state 1.1)

 No orbital energies found for orbital set 0

 No redundancy group numbers found for orbital set 0

 **********************************************************************************************************************************

 BCCD/cc-pVDZ energy=   -109.039466705628

            BCCD
   -109.03946671
 **********************************************************************************************************************************
 Molpro calculation terminated
