
 Primary working directories    : /scr/yuriaoto/job.023274/molpro.Z6P4jMgw3p
 Secondary working directories  : /scr/yuriaoto/job.023274/molpro.Z6P4jMgw3p
 Wavefunction directory         : /scr/yuriaoto/job.023274/
 Main file repository           : /scr/yuriaoto/job.023274/molpro.Z6P4jMgw3p/

 id        : yuriaoto

 Nodes             nprocs
 t-rex.ufabc.int.br    1

 Using customized tuning parameters: mindgm=8; mindgv=16; mindgc=1; mindgr=1; noblas=0; minvec=7
 default implementation of scratch files=df  


 Variables initialized (933), CPU time= 0.01 sec
 ***,
 memory,40,m
 gprint,orbital,basis,civector
 gthresh,thrprint=0,printci=0.0
 file,3,wfu.dat,old
 
 {ccsd,CC_NORM_MAX=20.0
 thresh,printci=0.0,ENERGY=1.0E-10,COEFF=1.0E-12
 print,ref=1
 core,0
 wf,14,1,0;
 }
 
 Commands  initialized (760), CPU time= 0.01 sec, 617 directives.
 Default parameters read. Elapsed time= 0.04 sec

 Checking input...
 Passed
1


                                         ***  PROGRAM SYSTEM MOLPRO  ***
                                       Copyright, TTI GmbH Stuttgart, 2015
                                    Version 2019.2 linked Abr  7 2019 15:10:35


 **********************************************************************************************************************************
 LABEL *                                                                                 
  64 bit serial version                                                                  DATE: 30-May-20          TIME: 20:38:19  
 **********************************************************************************************************************************

 SHA1:             3a8a58c585c929645742fb5a1b7541a4ad1da699
 **********************************************************************************************************************************


 THRESHOLDS:

 ZERO    =  1.00D-12  ONEINT  =  1.00D-12  TWOINT  =  1.00D-11  PREFAC  =  1.00D-14  XXXXXX  =  1.00D-09  EORDER  =  1.00D-04
 ENERGY  =  0.00D+00  ETEST   =  0.00D+00  EDENS   =  0.00D+00  THRDEDEF=  1.00D-06  GRADIENT=  1.00D-02  STEP    =  1.00D-03
 ORBITAL =  1.00D-05  CIVEC   =  1.00D-05  COEFF   =  1.00D-04  PRINTCI =  0.00D+00  PUNCHCI =  9.90D+01  OPTGRAD =  3.00D-04
 OPTENERG=  1.00D-06  OPTSTEP =  3.00D-04  THRGRAD =  1.00D-10  COMPRESS=  1.00D-11  VARMIN  =  1.00D-07  VARMAX  =  1.00D-03
 THRDOUB =  0.00D+00  THRDIV  =  1.00D-05  THRRED  =  1.00D-07  THRPSP  =  1.00D+00  THRDC   =  1.00D-10  THRCS   =  1.00D-10
 THRNRM  =  1.00D-08  THREQ   =  0.00D+00  THRDE   =  1.00D+00  THRREF  =  1.00D-05  SPARFAC =  1.00D+00  THRDLP  =  1.00D-07
 THRDIA  =  1.00D-10  THRDLS  =  1.00D-07  THRGPS  =  0.00D+00  THRKEX  =  0.00D+00  THRDIS  =  2.00D-01  THRVAR  =  1.00D-10
 THRLOC  =  1.00D-06  THRGAP  =  1.00D-06  THRLOCT = -1.00D+00  THRGAPT = -1.00D+00  THRORB  =  1.00D-06  THRMLTP =  0.00D+00
 THRCPQCI=  1.00D-10  KEXTA   =  0.00D+00  THRCOARS=  0.00D+00  SYMTOL  =  1.00D-06  GRADTOL =  1.00D-06  THROVL  =  1.00D-08
 THRORTH =  1.00D-08  GRID    =  1.00D-06  GRIDMAX =  1.00D-03  DTMAX   =  0.00D+00  THROCCDE=  1.00D-01  THROCCDE=  1.00D-01
 THRPRINT=  0.00D+00


 Variable memory set to   40000000 words,  buffer space 



 Permanent file  3  wfu.dat  assigned.  Implementation=df    Size= 14.09 MB


 PROGRAM * RESTART 


 Reading variables from file 3

 _FNUC           =      0.00000000
 _BASIS          =    CC-PVDZ
 _NELEC          =     14.00000000
 _PROGRAM        =    RHF-SCF
 _DMX_SCF        =      0.00000000
 _DMY_SCF        =      0.00000000
 _DMZ_SCF        =      0.00000000
 _HOMO           =      1.20000000
 _EHOMO          =     -0.46392077
 _LUMO           =      1.60000000
 _ELUMO          =     -0.00944908
 _ENERGY         =   -108.60622581
 _ENERGY_METHOD  =    RHF
 _ENERGY_BASIS   =    cc-pVDZ
 _ENUC           =     16.33333333
 _EPS1(1:7)      =    -15.79676678    -1.19737912    -0.55506402     0.94628654     1.05507753     1.91447057
                        2.03771558
 _EPS2(1:3)      =     -0.46392077     0.91310838     1.72264736
 _EPS3(1:3)      =     -0.46392077     0.91310838     1.72264736
 _EPS4           =      1.91447057
 _EPS5(1:7)      =    -15.79614860    -0.90460729     0.23671206     0.86826039     1.39142551     2.07157051
                        3.02778440
 _EPS6(1:3)      =     -0.00944908     0.99822150     2.45091804
 _EPS7(1:3)      =     -0.00944908     0.99822150     2.45091804
 _EPS8           =      2.07157051
 _IPROC_MPP      =      0.00000000
 _IPROC_MPPX     =      0.00000000
 _ORBITAL        =   2100.30000000
 _STATUS         =      1.00000000
 _DATE           =    23-Mar-20
 _LASTORB        =    RHF
 _OUTPUT         =    /scr/yuriaoto/job.022817/RHF.xml
 _PGROUP         =    D2h 
 _TIME           =    14:41:20
 R               =      3.00000000

 Geometry written to block  1 of record 700


 **********************************************************************************************************************************
 DATASETS  * FILE   NREC   LENGTH (MB)   RECORD NAMES
              3       5       14.77       500      610      700     1000     2100   
                                          VAR    BASINP    GEOM     BASIS     RHF  

 PROGRAMS   *        TOTAL   RESTART
 CPU TIMES  *         0.14      0.03
 REAL TIME  *         0.17 SEC
 DISK USED  *        26.84 MB
 **********************************************************************************************************************************


 Recomputing integrals since basis changed


 Using spherical harmonics

 Library entry N      S cc-pVDZ              selected for orbital group  1
 Library entry N      P cc-pVDZ              selected for orbital group  1
 Library entry N      D cc-pVDZ              selected for orbital group  1


 PROGRAM * SEWARD (Integral evaluation for generally contracted gaussian basis sets)     Author: Roland Lindh, 1990

 Geometry written to block  1 of record 700

 Orientation using atomic masses  
 Molecule type: Linear
 User-specified symmetry elements: X,Y,Z
 Symmetry elements: X,Y,Z
 Rotational constants:      28.6329822     28.6329822      0.0000000 GHz  (calculated with average atomic masses)

 Point group  D2h 



 ATOMIC COORDINATES

 NR  ATOM    CHARGE       X              Y              Z

   1  N1      7.00    0.000000000    0.000000000   -1.500000000
   2  N2      7.00    0.000000000    0.000000000    1.500000000

 Bond lengths in Bohr (Angstrom)

 1-2  3.000000000
     ( 1.587531633)


 BASIS DATA

   Nr Sym  Nuc  Type         Exponents   Contraction coefficients

    1.1 Ag    1  1s        9046.000000     0.000700   -0.000153    0.000000
    2.1 Ag    2  1s        1357.000000     0.005389   -0.001208    0.000000
    3.1 Ag                  309.300000     0.027406   -0.005992    0.000000
                             87.730000     0.103207   -0.024544    0.000000
                             28.560000     0.278723   -0.067459    0.000000
                             10.210000     0.448540   -0.158078    0.000000
                              3.838000     0.278238   -0.121831    0.000000
                              0.746600     0.015440    0.549003    0.000000
                              0.224800    -0.002864    0.578815    1.000000
    4.1 Ag    1  2pz         13.550000     0.039919    0.000000
    5.1 Ag    2 -2pz          2.917000     0.217169    0.000000
                              0.797300     0.510319    0.000000
                              0.218500     0.462214    1.000000
    6.1 Ag    1  3d0          0.817000     1.000000
              2  3d0   
    7.1 Ag    1  3d2+         0.817000     1.000000
              2  3d2+  
    1.2 B3u   1  2px         13.550000     0.039919    0.000000
    2.2 B3u   2  2px          2.917000     0.217169    0.000000
                              0.797300     0.510319    0.000000
                              0.218500     0.462214    1.000000
    3.2 B3u   1  3d1+         0.817000     1.000000
              2 -3d1+  
    1.3 B2u   1  2py         13.550000     0.039919    0.000000
    2.3 B2u   2  2py          2.917000     0.217169    0.000000
                              0.797300     0.510319    0.000000
                              0.218500     0.462214    1.000000
    3.3 B2u   1  3d1-         0.817000     1.000000
              2 -3d1-  
    1.4 B1g   1  3d2-         0.817000     1.000000
              2  3d2-  
    1.5 B1u   1  1s        9046.000000     0.000700   -0.000153    0.000000
    2.5 B1u   2 -1s        1357.000000     0.005389   -0.001208    0.000000
    3.5 B1u                 309.300000     0.027406   -0.005992    0.000000
                             87.730000     0.103207   -0.024544    0.000000
                             28.560000     0.278723   -0.067459    0.000000
                             10.210000     0.448540   -0.158078    0.000000
                              3.838000     0.278238   -0.121831    0.000000
                              0.746600     0.015440    0.549003    0.000000
                              0.224800    -0.002864    0.578815    1.000000
    4.5 B1u   1  2pz         13.550000     0.039919    0.000000
    5.5 B1u   2  2pz          2.917000     0.217169    0.000000
                              0.797300     0.510319    0.000000
                              0.218500     0.462214    1.000000
    6.5 B1u   1  3d0          0.817000     1.000000
              2 -3d0   
    7.5 B1u   1  3d2+         0.817000     1.000000
              2 -3d2+  
    1.6 B2g   1  2px         13.550000     0.039919    0.000000
    2.6 B2g   2 -2px          2.917000     0.217169    0.000000
                              0.797300     0.510319    0.000000
                              0.218500     0.462214    1.000000
    3.6 B2g   1  3d1+         0.817000     1.000000
              2  3d1+  
    1.7 B3g   1  2py         13.550000     0.039919    0.000000
    2.7 B3g   2 -2py          2.917000     0.217169    0.000000
                              0.797300     0.510319    0.000000
                              0.218500     0.462214    1.000000
    3.7 B3g   1  3d1-         0.817000     1.000000
              2  3d1-  
    1.8 Au    1  3d2-         0.817000     1.000000
              2 -3d2-  

 NUCLEAR CHARGE:                   14
 NUMBER OF PRIMITIVE AOS:          54
 NUMBER OF SYMMETRY AOS:           52
 NUMBER OF CONTRACTIONS:           28   (    7Ag  +    3B3u +    3B2u +    1B1g +    7B1u +    3B2g +    3B3g +    1Au  )
 NUMBER OF CORE ORBITALS:           2   (    1Ag  +    0B3u +    0B2u +    0B1g +    1B1u +    0B2g +    0B3g +    0Au  )
 NUMBER OF VALENCE ORBITALS:        8   (    2Ag  +    1B3u +    1B2u +    0B1g +    2B1u +    1B2g +    1B3g +    0Au  )


 NUCLEAR REPULSION ENERGY   16.33333333

 EXTRA SYMMETRY OF AOS IN SYMMETRY 1:   1 1 1 1 1 1 2
 EXTRA SYMMETRY OF AOS IN SYMMETRY 5:   1 1 1 1 1 1 2

 Eigenvalues of metric

         1 0.453E-01 0.160E+00 0.100E+01 0.103E+01 0.121E+01 0.168E+01 0.337E+01
         2 0.196E+00 0.113E+01 0.236E+01
         3 0.196E+00 0.113E+01 0.236E+01
         4 0.103E+01
         5 0.148E-01 0.123E+00 0.368E+00 0.923E+00 0.975E+00 0.100E+01 0.211E+01
         6 0.152E+00 0.785E+00 0.137E+01
         7 0.152E+00 0.785E+00 0.137E+01
         8 0.975E+00


 Contracted 2-electron integrals neglected if value below      1.0D-11
 AO integral compression algorithm  1   Integral accuracy      1.0D-11

     0.262 MB (compressed) written to integral file (100.0%)


 NUMBER OF SORTED TWO-ELECTRON INTEGRALS:      13015.     BUFFER LENGTH:  32768
 NUMBER OF SEGMENTS:   1  SEGMENT LENGTH:      13015      RECORD LENGTH: 524288

 Memory used in sort:       0.57 MW

 SORT1 READ       27440. AND WROTE       11779. INTEGRALS IN      1 RECORDS. CPU TIME:     0.00 SEC, REAL TIME:     0.00 SEC
 SORT2 READ       11779. AND WROTE       13015. INTEGRALS IN      1 RECORDS. CPU TIME:     0.03 SEC, REAL TIME:     0.03 SEC

 FILE SIZES:   FILE 1:    30.2 MBYTE,  FILE 4:     4.2 MBYTE,   TOTAL:     34.5 MBYTE

 OPERATOR DM      FOR CENTER  0  COORDINATES:    0.000000    0.000000    0.000000


 **********************************************************************************************************************************
 DATASETS  * FILE   NREC   LENGTH (MB)   RECORD NAMES
              1      19       30.05       500      700      610      900      950      970     1000      129      960     1100   
                                          VAR     GEOM    BASINP   SYMINP    ZMAT    AOBASIS   BASIS     P2S    ABASIS      S 
                                         1400     1410     1200     1210     1080     1600     1650     1300     1700   
                                           T        V       H0       H01     AOSYM     SMH    MOLCAS    ERIS     OPER   

              3       5       14.77       500      610      700     1000     2100   
                                          VAR    BASINP    GEOM     BASIS     RHF  

 PROGRAMS   *        TOTAL       INT   RESTART
 CPU TIMES  *         0.33      0.19      0.03
 REAL TIME  *         0.51 SEC
 DISK USED  *        49.46 MB
 **********************************************************************************************************************************


 PROGRAM * CCSD (Closed-shell coupled cluster)     Authors: C. Hampel, H.-J. Werner, 1991, M. Deegan, P.J. Knowles, 1992


 Input parameters for THRESH:

 ENERGY   =    1.00D-10
 COEFF    =    1.00D-12
 PRINTCI  =    0.000000
 THRPRINT =    0.000000

 Convergence thresholds:  THRVAR = 1.00D-24  THRDEN = 1.00D-10

 Number of closed-shell orbitals:   7 (   3   1   1   0   2   0   0   0 )
 Number of external orbitals:      21 (   4   2   2   1   5   3   3   1 )

 Molecular orbitals read from record     2100.3  Type=RHF/CANONICAL (state 1.1)

 Number of N-1 electron functions:               7
 Number of N-2 electron functions:              28
 Number of singly external CSFs:                26
 Number of doubly external CSFs:              1583
 Total number of CSFs:                        1610

 Length of J-op  integral file:               0.00 MB
 Length of K-op  integral file:               0.04 MB
 Length of 3-ext integral record:             0.00 MB

 Integral transformation finished. Total CPU:   0.00 sec, npass=  1  Memory used:   0.07 MW

 Reference energy:                   -108.60622581

 MP2 singlet pair energy:              -0.30154336
 MP2 triplet pair energy:              -0.23073443
 MP2 correlation energy:               -0.53227780
 MP2 total energy:                   -109.13850360

 SCS-MP2 correlation energy:           -0.50542013   (PS=  1.200000  PT=  0.333333)
 SCS-MP2 total energy:               -109.11164593

 ITER.      SQ.NORM     CORR.ENERGY   TOTAL ENERGY   ENERGY CHANGE        DEN1      VAR(S)    VAR(P)  DIIS     TIME  TIME/IT
   1      1.15904924    -0.47787977  -109.08410557     0.05439803     0.17823175  0.18D-01  0.81D-01  1  1     0.02     0.01
   2      1.21569743    -0.43396941  -109.04019521     0.04391036    -0.06543280  0.35D-03  0.28D-02  2  2     0.03     0.01
   3      1.23806963    -0.43249469  -109.03872050     0.00147471    -0.00636486  0.27D-04  0.77D-03  3  3     0.04     0.01
   4      1.26711374    -0.43773352  -109.04395932    -0.00523883    -0.00821756  0.22D-04  0.20D-03  4  4     0.05     0.01
   5      1.28326226    -0.43776907  -109.04399488    -0.00003555    -0.00265471  0.38D-06  0.29D-04  5  5     0.05     0.01
   6      1.28827744    -0.43757170  -109.04379751     0.00019737    -0.00059804  0.43D-06  0.40D-05  6  6     0.06     0.01
   7      1.29068924    -0.43780310  -109.04402891    -0.00023140    -0.00047918  0.92D-08  0.41D-06  6  1     0.07     0.01
   8      1.29061927    -0.43779944  -109.04402525     0.00000366     0.00004218  0.52D-08  0.54D-07  6  2     0.08     0.01
   9      1.29089118    -0.43780330  -109.04402911    -0.00000386    -0.00006491  0.56D-09  0.31D-08  6  3     0.08     0.01
  10      1.29087852    -0.43780588  -109.04403168    -0.00000258     0.00000552  0.34D-10  0.45D-09  6  4     0.09     0.01
  11      1.29086477    -0.43780556  -109.04403136     0.00000032     0.00000328  0.71D-11  0.36D-10  6  5     0.10     0.01
  12      1.29085862    -0.43780552  -109.04403132     0.00000004     0.00000164  0.64D-12  0.45D-11  6  6     0.10     0.01
  13      1.29085829    -0.43780548  -109.04403129     0.00000003     0.00000009  0.69D-13  0.68D-12  6  1     0.11     0.01
  14      1.29085874    -0.43780547  -109.04403128     0.00000001    -0.00000012  0.10D-13  0.61D-13  6  2     0.11     0.01
  15      1.29085862    -0.43780547  -109.04403128     0.00000000     0.00000004  0.97D-15  0.13D-13  6  3     0.12     0.01
  16      1.29085862    -0.43780547  -109.04403128    -0.00000000    -0.00000001  0.30D-15  0.23D-14  6  4     0.13     0.01
  17      1.29085855    -0.43780547  -109.04403128     0.00000000     0.00000002  0.98D-17  0.27D-15  6  5     0.13     0.01
  18      1.29085854    -0.43780547  -109.04403128     0.00000000    -0.00000000  0.27D-17  0.44D-16  6  1     0.13     0.01
  19      1.29085853    -0.43780547  -109.04403127     0.00000000     0.00000000  0.10D-17  0.36D-17  6  6     0.14     0.01
  20      1.29085853    -0.43780547  -109.04403127     0.00000000    -0.00000000  0.18D-18  0.68D-18  6  2     0.14     0.01
  21      1.29085853    -0.43780547  -109.04403127     0.00000000     0.00000000  0.19D-19  0.71D-19  6  4     0.14     0.01
  22      1.29085853    -0.43780547  -109.04403127     0.00000000     0.00000000  0.18D-20  0.46D-20  6  3     0.15     0.01
  23      1.29085853    -0.43780547  -109.04403127    -0.00000000    -0.00000000  0.89D-22  0.50D-21  6  1     0.15     0.01
  24      1.29085853    -0.43780547  -109.04403127     0.00000000     0.00000000  0.69D-23  0.46D-22  6  5     0.16     0.01
  25      1.29085853    -0.43780547  -109.04403127    -0.00000000    -0.00000000  0.51D-24  0.53D-23  6  2     0.16     0.01
  26      1.29085853    -0.43780547  -109.04403127     0.00000000     0.00000000  0.22D-25  0.82D-24  6  6     0.16     0.01

 Norm of t1 vector:      0.11915624      S-energy:    -0.00000000      T1 diagnostic:  0.02251841
                                                                       D1 diagnostic:  0.05319410

 Singles amplitudes (print threshold =  0.000E+00):

         I         SYM. A    A   T(IA)

         1         1         1      0.00035585
         1         1         2     -0.00024633
         1         1         3     -0.00000000
         1         1         4     -0.00010656
         2         1         1     -0.00606176
         2         1         2     -0.00258052
         2         1         3      0.00000000
         2         1         4     -0.00581024
         3         1         1     -0.00244944
         3         1         2     -0.01587945
         3         1         3     -0.00000000
         3         1         4     -0.01388466
         4         2         1     -0.05201110
         4         2         2     -0.01115604
         5         3         1     -0.05201110
         5         3         2     -0.01115604
         6         5         1      0.00012747
         6         5         2      0.00021249
         6         5         3     -0.00029942
         6         5         4     -0.00000000
         6         5         5     -0.00004065
         7         5         1      0.02859431
         7         5         2     -0.00960662
         7         5         3     -0.00080805
         7         5         4     -0.00000000
         7         5         5     -0.00092286

 Doubles amplitudes (print threshold =  0.000E+00):

         I         J         SYM. A    SYM. B    A         B      T(IJ, AB)

         1         1         1         1         1         1     -0.00060420
         1         1         1         1         1         2      0.00008894
         1         1         1         1         1         3      0.00000000
         1         1         1         1         1         4     -0.00002880
         1         1         1         1         2         1      0.00008894
         1         1         1         1         2         2     -0.00050579
         1         1         1         1         2         3     -0.00000000
         1         1         1         1         2         4     -0.00031508
         1         1         1         1         3         1      0.00000000
         1         1         1         1         3         2     -0.00000000
         1         1         1         1         3         3      0.00000353
         1         1         1         1         3         4      0.00000000
         1         1         1         1         4         1     -0.00002880
         1         1         1         1         4         2     -0.00031508
         1         1         1         1         4         3      0.00000000
         1         1         1         1         4         4     -0.00019305
         1         1         2         2         1         1     -0.00060118
         1         1         2         2         1         2     -0.00002555
         1         1         2         2         2         1     -0.00002555
         1         1         2         2         2         2      0.00000897
         1         1         3         3         1         1     -0.00060118
         1         1         3         3         1         2     -0.00002555
         1         1         3         3         2         1     -0.00002555
         1         1         3         3         2         2      0.00000897
         1         1         4         4         1         1      0.00000353
         1         1         5         5         1         1     -0.00050628
         1         1         5         5         1         2      0.00033102
         1         1         5         5         1         3      0.00039344
         1         1         5         5         1         4     -0.00000000
         1         1         5         5         1         5     -0.00007908
         1         1         5         5         2         1      0.00033102
         1         1         5         5         2         2     -0.00060301
         1         1         5         5         2         3      0.00004971
         1         1         5         5         2         4      0.00000000
         1         1         5         5         2         5      0.00010018
         1         1         5         5         3         1      0.00039344
         1         1         5         5         3         2      0.00004971
         1         1         5         5         3         3     -0.00046091
         1         1         5         5         3         4      0.00000000
         1         1         5         5         3         5      0.00000754
         1         1         5         5         4         1     -0.00000000
         1         1         5         5         4         2      0.00000000
         1         1         5         5         4         3      0.00000000
         1         1         5         5         4         4     -0.00000029
         1         1         5         5         4         5     -0.00000000
         1         1         5         5         5         1     -0.00007908
         1         1         5         5         5         2      0.00010018
         1         1         5         5         5         3      0.00000754
         1         1         5         5         5         4     -0.00000000
         1         1         5         5         5         5     -0.00002794
         1         1         6         6         1         1     -0.00024888
         1         1         6         6         1         2      0.00047100
         1         1         6         6         1         3      0.00002818
         1         1         6         6         2         1      0.00047100
         1         1         6         6         2         2     -0.00059657
         1         1         6         6         2         3     -0.00004174
         1         1         6         6         3         1      0.00002818
         1         1         6         6         3         2     -0.00004174
         1         1         6         6         3         3     -0.00000534
         1         1         7         7         1         1     -0.00024888
         1         1         7         7         1         2      0.00047100
         1         1         7         7         1         3      0.00002818
         1         1         7         7         2         1      0.00047100
         1         1         7         7         2         2     -0.00059657
         1         1         7         7         2         3     -0.00004174
         1         1         7         7         3         1      0.00002818
         1         1         7         7         3         2     -0.00004174
         1         1         7         7         3         3     -0.00000534
         1         1         8         8         1         1     -0.00000029
         2         1         1         1         1         1     -0.00006707
         2         1         1         1         1         2     -0.00025788
         2         1         1         1         1         3     -0.00000000
         2         1         1         1         1         4     -0.00014453
         2         1         1         1         2         1     -0.00045445
         2         1         1         1         2         2     -0.00011895
         2         1         1         1         2         3      0.00000000
         2         1         1         1         2         4     -0.00008076
         2         1         1         1         3         1     -0.00000000
         2         1         1         1         3         2      0.00000000
         2         1         1         1         3         3     -0.00008800
         2         1         1         1         3         4      0.00000000
         2         1         1         1         4         1     -0.00011684
         2         1         1         1         4         2      0.00007668
         2         1         1         1         4         3      0.00000000
         2         1         1         1         4         4     -0.00006904
         2         1         2         2         1         1     -0.00054159
         2         1         2         2         1         2     -0.00001112
         2         1         2         2         2         1      0.00012570
         2         1         2         2         2         2     -0.00008371
         2         1         3         3         1         1     -0.00054159
         2         1         3         3         1         2     -0.00001112
         2         1         3         3         2         1      0.00012570
         2         1         3         3         2         2     -0.00008371
         2         1         4         4         1         1     -0.00008800
         2         1         5         5         1         1     -0.00059701
         2         1         5         5         1         2      0.00076408
         2         1         5         5         1         3      0.00008049
         2         1         5         5         1         4      0.00000000
         2         1         5         5         1         5     -0.00014352
         2         1         5         5         2         1      0.00047032
         2         1         5         5         2         2     -0.00049304
         2         1         5         5         2         3     -0.00014725
         2         1         5         5         2         4     -0.00000000
         2         1         5         5         2         5      0.00012270
         2         1         5         5         3         1      0.00012732
         2         1         5         5         3         2     -0.00029798
         2         1         5         5         3         3      0.00010067
         2         1         5         5         3         4     -0.00000000
         2         1         5         5         3         5      0.00008957
         2         1         5         5         4         1      0.00000000
         2         1         5         5         4         2     -0.00000000
         2         1         5         5         4         3     -0.00000000
         2         1         5         5         4         4     -0.00011784
         2         1         5         5         4         5     -0.00000000
         2         1         5         5         5         1     -0.00018426
         2         1         5         5         5         2      0.00021858
         2         1         5         5         5         3      0.00007249
         2         1         5         5         5         4     -0.00000000
         2         1         5         5         5         5     -0.00016136
         2         1         6         6         1         1     -0.00054841
         2         1         6         6         1         2      0.00077670
         2         1         6         6         1         3      0.00001627
         2         1         6         6         2         1      0.00049610
         2         1         6         6         2         2     -0.00057096
         2         1         6         6         2         3      0.00000791
         2         1         6         6         3         1     -0.00010612
         2         1         6         6         3         2      0.00012306
         2         1         6         6         3         3     -0.00011239
         2         1         7         7         1         1     -0.00054841
         2         1         7         7         1         2      0.00077670
         2         1         7         7         1         3      0.00001627
         2         1         7         7         2         1      0.00049610
         2         1         7         7         2         2     -0.00057096
         2         1         7         7         2         3      0.00000791
         2         1         7         7         3         1     -0.00010612
         2         1         7         7         3         2      0.00012306
         2         1         7         7         3         3     -0.00011239
         2         1         8         8         1         1     -0.00011784
         2         2         1         1         1         1     -0.00436746
         2         2         1         1         1         2      0.00267818
         2         2         1         1         1         3     -0.00000000
         2         2         1         1         1         4      0.00188630
         2         2         1         1         2         1      0.00267818
         2         2         1         1         2         2     -0.01195293
         2         2         1         1         2         3      0.00000000
         2         2         1         1         2         4      0.00093689
         2         2         1         1         3         1     -0.00000000
         2         2         1         1         3         2      0.00000000
         2         2         1         1         3         3     -0.00529726
         2         2         1         1         3         4      0.00000000
         2         2         1         1         4         1      0.00188630
         2         2         1         1         4         2      0.00093689
         2         2         1         1         4         3      0.00000000
         2         2         1         1         4         4     -0.00739127
         2         2         2         2         1         1     -0.00560142
         2         2         2         2         1         2     -0.00004876
         2         2         2         2         2         1     -0.00004876
         2         2         2         2         2         2     -0.00813407
         2         2         3         3         1         1     -0.00560142
         2         2         3         3         1         2     -0.00004876
         2         2         3         3         2         1     -0.00004876
         2         2         3         3         2         2     -0.00813407
         2         2         4         4         1         1     -0.00529726
         2         2         5         5         1         1     -0.03063159
         2         2         5         5         1         2      0.00746935
         2         2         5         5         1         3      0.01001544
         2         2         5         5         1         4      0.00000000
         2         2         5         5         1         5     -0.00292279
         2         2         5         5         2         1      0.00746935
         2         2         5         5         2         2     -0.00439892
         2         2         5         5         2         3     -0.00163262
         2         2         5         5         2         4     -0.00000000
         2         2         5         5         2         5      0.00204465
         2         2         5         5         3         1      0.01001544
         2         2         5         5         3         2     -0.00163262
         2         2         5         5         3         3     -0.00734933
         2         2         5         5         3         4     -0.00000000
         2         2         5         5         3         5      0.00216090
         2         2         5         5         4         1      0.00000000
         2         2         5         5         4         2     -0.00000000
         2         2         5         5         4         3     -0.00000000
         2         2         5         5         4         4     -0.00534117
         2         2         5         5         4         5     -0.00000000
         2         2         5         5         5         1     -0.00292279
         2         2         5         5         5         2      0.00204465
         2         2         5         5         5         3      0.00216090
         2         2         5         5         5         4     -0.00000000
         2         2         5         5         5         5     -0.00344595
         2         2         6         6         1         1     -0.01527305
         2         2         6         6         1         2      0.00756763
         2         2         6         6         1         3     -0.00339729
         2         2         6         6         2         1      0.00756763
         2         2         6         6         2         2     -0.00506175
         2         2         6         6         2         3      0.00216190
         2         2         6         6         3         1     -0.00339729
         2         2         6         6         3         2      0.00216190
         2         2         6         6         3         3     -0.00464553
         2         2         7         7         1         1     -0.01527305
         2         2         7         7         1         2      0.00756763
         2         2         7         7         1         3     -0.00339729
         2         2         7         7         2         1      0.00756763
         2         2         7         7         2         2     -0.00506175
         2         2         7         7         2         3      0.00216190
         2         2         7         7         3         1     -0.00339729
         2         2         7         7         3         2      0.00216190
         2         2         7         7         3         3     -0.00464553
         2         2         8         8         1         1     -0.00534117
         3         1         1         1         1         1      0.00009591
         3         1         1         1         1         2      0.00033965
         3         1         1         1         1         3     -0.00000000
         3         1         1         1         1         4      0.00029092
         3         1         1         1         2         1     -0.00045759
         3         1         1         1         2         2     -0.00025811
         3         1         1         1         2         3      0.00000000
         3         1         1         1         2         4     -0.00015404
         3         1         1         1         3         1     -0.00000000
         3         1         1         1         3         2      0.00000000
         3         1         1         1         3         3      0.00002611
         3         1         1         1         3         4      0.00000000
         3         1         1         1         4         1      0.00028103
         3         1         1         1         4         2      0.00036635
         3         1         1         1         4         3      0.00000000
         3         1         1         1         4         4      0.00030061
         3         1         2         2         1         1      0.00017487
         3         1         2         2         1         2      0.00008787
         3         1         2         2         2         1      0.00058893
         3         1         2         2         2         2      0.00004475
         3         1         3         3         1         1      0.00017487
         3         1         3         3         1         2      0.00008787
         3         1         3         3         2         1      0.00058893
         3         1         3         3         2         2      0.00004475
         3         1         4         4         1         1      0.00002611
         3         1         5         5         1         1     -0.00004765
         3         1         5         5         1         2     -0.00003848
         3         1         5         5         1         3      0.00002551
         3         1         5         5         1         4      0.00000000
         3         1         5         5         1         5     -0.00015529
         3         1         5         5         2         1     -0.00041281
         3         1         5         5         2         2      0.00026773
         3         1         5         5         2         3      0.00022323
         3         1         5         5         2         4      0.00000000
         3         1         5         5         2         5      0.00006873
         3         1         5         5         3         1      0.00058069
         3         1         5         5         3         2     -0.00056217
         3         1         5         5         3         3     -0.00012273
         3         1         5         5         3         4      0.00000000
         3         1         5         5         3         5      0.00011753
         3         1         5         5         4         1      0.00000000
         3         1         5         5         4         2      0.00000000
         3         1         5         5         4         3      0.00000000
         3         1         5         5         4         4      0.00003986
         3         1         5         5         4         5      0.00000000
         3         1         5         5         5         1     -0.00050943
         3         1         5         5         5         2      0.00053787
         3         1         5         5         5         3      0.00007583
         3         1         5         5         5         4      0.00000000
         3         1         5         5         5         5     -0.00006881
         3         1         6         6         1         1      0.00017615
         3         1         6         6         1         2     -0.00023543
         3         1         6         6         1         3     -0.00015863
         3         1         6         6         2         1     -0.00005221
         3         1         6         6         2         2      0.00008320
         3         1         6         6         2         3      0.00009525
         3         1         6         6         3         1     -0.00054649
         3         1         6         6         3         2      0.00053428
         3         1         6         6         3         3      0.00007114
         3         1         7         7         1         1      0.00017615
         3         1         7         7         1         2     -0.00023543
         3         1         7         7         1         3     -0.00015863
         3         1         7         7         2         1     -0.00005221
         3         1         7         7         2         2      0.00008320
         3         1         7         7         2         3      0.00009525
         3         1         7         7         3         1     -0.00054649
         3         1         7         7         3         2      0.00053428
         3         1         7         7         3         3      0.00007114
         3         1         8         8         1         1      0.00003986
         3         2         1         1         1         1      0.00956511
         3         2         1         1         1         2     -0.00642153
         3         2         1         1         1         3     -0.00000000
         3         2         1         1         1         4      0.00038609
         3         2         1         1         2         1      0.00073102
         3         2         1         1         2         2     -0.00857679
         3         2         1         1         2         3      0.00000000
         3         2         1         1         2         4      0.00100014
         3         2         1         1         3         1     -0.00000000
         3         2         1         1         3         2      0.00000000
         3         2         1         1         3         3      0.00111000
         3         2         1         1         3         4      0.00000000
         3         2         1         1         4         1      0.00308649
         3         2         1         1         4         2      0.00050519
         3         2         1         1         4         3      0.00000000
         3         2         1         1         4         4     -0.00231608
         3         2         2         2         1         1      0.00186758
         3         2         2         2         1         2      0.00162734
         3         2         2         2         2         1      0.00289221
         3         2         2         2         2         2     -0.00223422
         3         2         3         3         1         1      0.00186758
         3         2         3         3         1         2      0.00162734
         3         2         3         3         2         1      0.00289221
         3         2         3         3         2         2     -0.00223422
         3         2         4         4         1         1      0.00111000
         3         2         5         5         1         1     -0.02548419
         3         2         5         5         1         2      0.00461801
         3         2         5         5         1         3      0.01285007
         3         2         5         5         1         4     -0.00000000
         3         2         5         5         1         5     -0.00643220
         3         2         5         5         2         1      0.01251529
         3         2         5         5         2         2      0.00399865
         3         2         5         5         2         3     -0.00957235
         3         2         5         5         2         4      0.00000000
         3         2         5         5         2         5      0.00170964
         3         2         5         5         3         1      0.01196925
         3         2         5         5         3         2     -0.00538221
         3         2         5         5         3         3     -0.00156833
         3         2         5         5         3         4      0.00000000
         3         2         5         5         3         5      0.00111329
         3         2         5         5         4         1      0.00000000
         3         2         5         5         4         2      0.00000000
         3         2         5         5         4         3      0.00000000
         3         2         5         5         4         4      0.00186092
         3         2         5         5         4         5      0.00000000
         3         2         5         5         5         1     -0.01141390
         3         2         5         5         5         2      0.00344413
         3         2         5         5         5         3      0.00196967
         3         2         5         5         5         4      0.00000000
         3         2         5         5         5         5      0.00024370
         3         2         6         6         1         1      0.00903540
         3         2         6         6         1         2     -0.00053220
         3         2         6         6         1         3     -0.00580407
         3         2         6         6         2         1      0.00160391
         3         2         6         6         2         2      0.00049712
         3         2         6         6         2         3      0.00169884
         3         2         6         6         3         1     -0.01235435
         3         2         6         6         3         2      0.00333544
         3         2         6         6         3         3      0.00075245
         3         2         7         7         1         1      0.00903540
         3         2         7         7         1         2     -0.00053220
         3         2         7         7         1         3     -0.00580407
         3         2         7         7         2         1      0.00160391
         3         2         7         7         2         2      0.00049712
         3         2         7         7         2         3      0.00169884
         3         2         7         7         3         1     -0.01235435
         3         2         7         7         3         2      0.00333544
         3         2         7         7         3         3      0.00075245
         3         2         8         8         1         1      0.00186092
         3         3         1         1         1         1     -0.02111484
         3         3         1         1         1         2     -0.00403731
         3         3         1         1         1         3      0.00000000
         3         3         1         1         1         4     -0.00334197
         3         3         1         1         2         1     -0.00403731
         3         3         1         1         2         2     -0.00855500
         3         3         1         1         2         3     -0.00000000
         3         3         1         1         2         4      0.00730635
         3         3         1         1         3         1      0.00000000
         3         3         1         1         3         2     -0.00000000
         3         3         1         1         3         3     -0.00103109
         3         3         1         1         3         4     -0.00000000
         3         3         1         1         4         1     -0.00334197
         3         3         1         1         4         2      0.00730635
         3         3         1         1         4         3     -0.00000000
         3         3         1         1         4         4     -0.01202749
         3         3         2         2         1         1     -0.00191005
         3         3         2         2         1         2     -0.00275894
         3         3         2         2         2         1     -0.00275894
         3         3         2         2         2         2     -0.01339511
         3         3         3         3         1         1     -0.00191005
         3         3         3         3         1         2     -0.00275894
         3         3         3         3         2         1     -0.00275894
         3         3         3         3         2         2     -0.01339511
         3         3         4         4         1         1     -0.00103109
         3         3         5         5         1         1     -0.08401572
         3         3         5         5         1         2      0.03019930
         3         3         5         5         1         3     -0.00000776
         3         3         5         5         1         4      0.00000000
         3         3         5         5         1         5      0.00243034
         3         3         5         5         2         1      0.03019930
         3         3         5         5         2         2     -0.02844512
         3         3         5         5         2         3      0.00255691
         3         3         5         5         2         4     -0.00000000
         3         3         5         5         2         5      0.00008837
         3         3         5         5         3         1     -0.00000776
         3         3         5         5         3         2      0.00255691
         3         3         5         5         3         3     -0.00390627
         3         3         5         5         3         4     -0.00000000
         3         3         5         5         3         5      0.00404723
         3         3         5         5         4         1      0.00000000
         3         3         5         5         4         2     -0.00000000
         3         3         5         5         4         3     -0.00000000
         3         3         5         5         4         4     -0.00079022
         3         3         5         5         4         5     -0.00000000
         3         3         5         5         5         1      0.00243034
         3         3         5         5         5         2      0.00008837
         3         3         5         5         5         3      0.00404723
         3         3         5         5         5         4     -0.00000000
         3         3         5         5         5         5     -0.00583867
         3         3         6         6         1         1     -0.03399364
         3         3         6         6         1         2      0.00352152
         3         3         6         6         1         3      0.00935712
         3         3         6         6         2         1      0.00352152
         3         3         6         6         2         2     -0.00193551
         3         3         6         6         2         3     -0.00063980
         3         3         6         6         3         1      0.00935712
         3         3         6         6         3         2     -0.00063980
         3         3         6         6         3         3     -0.00630172
         3         3         7         7         1         1     -0.03399364
         3         3         7         7         1         2      0.00352152
         3         3         7         7         1         3      0.00935712
         3         3         7         7         2         1      0.00352152
         3         3         7         7         2         2     -0.00193551
         3         3         7         7         2         3     -0.00063980
         3         3         7         7         3         1      0.00935712
         3         3         7         7         3         2     -0.00063980
         3         3         7         7         3         3     -0.00630172
         3         3         8         8         1         1     -0.00079022
         4         4         1         1         1         1     -0.00343963
         4         4         1         1         1         2      0.00244754
         4         4         1         1         1         3     -0.00157832
         4         4         1         1         1         4      0.00157317
         4         4         1         1         2         1      0.00244754
         4         4         1         1         2         2     -0.00755741
         4         4         1         1         2         3     -0.00338965
         4         4         1         1         2         4     -0.00015411
         4         4         1         1         3         1     -0.00157832
         4         4         1         1         3         2     -0.00338965
         4         4         1         1         3         3     -0.00847992
         4         4         1         1         3         4      0.00347035
         4         4         1         1         4         1      0.00157317
         4         4         1         1         4         2     -0.00015411
         4         4         1         1         4         3      0.00347035
         4         4         1         1         4         4     -0.00281326
         4         4         2         2         1         1     -0.01836245
         4         4         2         2         1         2      0.00093564
         4         4         2         2         2         1      0.00093564
         4         4         2         2         2         2     -0.01087135
         4         4         3         3         1         1     -0.00087481
         4         4         3         3         1         2     -0.00014286
         4         4         3         3         2         1     -0.00014286
         4         4         3         3         2         2     -0.00069908
         4         4         4         4         1         1     -0.00847992
         4         4         5         5         1         1     -0.02336726
         4         4         5         5         1         2      0.00315297
         4         4         5         5         1         3      0.00155709
         4         4         5         5         1         4     -0.00501893
         4         4         5         5         1         5      0.00077349
         4         4         5         5         2         1      0.00315297
         4         4         5         5         2         2     -0.00185399
         4         4         5         5         2         3      0.00090553
         4         4         5         5         2         4     -0.00054155
         4         4         5         5         2         5      0.00068935
         4         4         5         5         3         1      0.00155709
         4         4         5         5         3         2      0.00090553
         4         4         5         5         3         3     -0.00317848
         4         4         5         5         3         4     -0.00032518
         4         4         5         5         3         5     -0.00040648
         4         4         5         5         4         1     -0.00501893
         4         4         5         5         4         2     -0.00054155
         4         4         5         5         4         3     -0.00032518
         4         4         5         5         4         4     -0.00549994
         4         4         5         5         4         5      0.00199105
         4         4         5         5         5         1      0.00077349
         4         4         5         5         5         2      0.00068935
         4         4         5         5         5         3     -0.00040648
         4         4         5         5         5         4      0.00199105
         4         4         5         5         5         5     -0.00111450
         4         4         6         6         1         1     -0.23691079
         4         4         6         6         1         2      0.03605281
         4         4         6         6         1         3     -0.00412028
         4         4         6         6         2         1      0.03605281
         4         4         6         6         2         2     -0.01438915
         4         4         6         6         2         3      0.00125169
         4         4         6         6         3         1     -0.00412028
         4         4         6         6         3         2      0.00125169
         4         4         6         6         3         3     -0.00455984
         4         4         7         7         1         1     -0.03639127
         4         4         7         7         1         2      0.00442034
         4         4         7         7         1         3     -0.00091127
         4         4         7         7         2         1      0.00442034
         4         4         7         7         2         2     -0.00074058
         4         4         7         7         2         3      0.00005271
         4         4         7         7         3         1     -0.00091127
         4         4         7         7         3         2      0.00005271
         4         4         7         7         3         3     -0.00019327
         4         4         8         8         1         1     -0.00549994
         5         5         1         1         1         1     -0.00343963
         5         5         1         1         1         2      0.00244754
         5         5         1         1         1         3      0.00157832
         5         5         1         1         1         4      0.00157317
         5         5         1         1         2         1      0.00244754
         5         5         1         1         2         2     -0.00755741
         5         5         1         1         2         3      0.00338965
         5         5         1         1         2         4     -0.00015411
         5         5         1         1         3         1      0.00157832
         5         5         1         1         3         2      0.00338965
         5         5         1         1         3         3     -0.00847992
         5         5         1         1         3         4     -0.00347035
         5         5         1         1         4         1      0.00157317
         5         5         1         1         4         2     -0.00015411
         5         5         1         1         4         3     -0.00347035
         5         5         1         1         4         4     -0.00281326
         5         5         2         2         1         1     -0.00087481
         5         5         2         2         1         2     -0.00014286
         5         5         2         2         2         1     -0.00014286
         5         5         2         2         2         2     -0.00069908
         5         5         3         3         1         1     -0.01836245
         5         5         3         3         1         2      0.00093564
         5         5         3         3         2         1      0.00093564
         5         5         3         3         2         2     -0.01087135
         5         5         4         4         1         1     -0.00847992
         5         5         5         5         1         1     -0.02336726
         5         5         5         5         1         2      0.00315297
         5         5         5         5         1         3      0.00155709
         5         5         5         5         1         4      0.00501893
         5         5         5         5         1         5      0.00077349
         5         5         5         5         2         1      0.00315297
         5         5         5         5         2         2     -0.00185399
         5         5         5         5         2         3      0.00090553
         5         5         5         5         2         4      0.00054155
         5         5         5         5         2         5      0.00068935
         5         5         5         5         3         1      0.00155709
         5         5         5         5         3         2      0.00090553
         5         5         5         5         3         3     -0.00317848
         5         5         5         5         3         4      0.00032518
         5         5         5         5         3         5     -0.00040648
         5         5         5         5         4         1      0.00501893
         5         5         5         5         4         2      0.00054155
         5         5         5         5         4         3      0.00032518
         5         5         5         5         4         4     -0.00549994
         5         5         5         5         4         5     -0.00199105
         5         5         5         5         5         1      0.00077349
         5         5         5         5         5         2      0.00068935
         5         5         5         5         5         3     -0.00040648
         5         5         5         5         5         4     -0.00199105
         5         5         5         5         5         5     -0.00111450
         5         5         6         6         1         1     -0.03639127
         5         5         6         6         1         2      0.00442034
         5         5         6         6         1         3     -0.00091127
         5         5         6         6         2         1      0.00442034
         5         5         6         6         2         2     -0.00074058
         5         5         6         6         2         3      0.00005271
         5         5         6         6         3         1     -0.00091127
         5         5         6         6         3         2      0.00005271
         5         5         6         6         3         3     -0.00019327
         5         5         7         7         1         1     -0.23691079
         5         5         7         7         1         2      0.03605281
         5         5         7         7         1         3     -0.00412028
         5         5         7         7         2         1      0.03605281
         5         5         7         7         2         2     -0.01438915
         5         5         7         7         2         3      0.00125169
         5         5         7         7         3         1     -0.00412028
         5         5         7         7         3         2      0.00125169
         5         5         7         7         3         3     -0.00455984
         5         5         8         8         1         1     -0.00549994
         6         6         1         1         1         1     -0.00059961
         6         6         1         1         1         2      0.00009392
         6         6         1         1         1         3      0.00000000
         6         6         1         1         1         4     -0.00002625
         6         6         1         1         2         1      0.00009392
         6         6         1         1         2         2     -0.00050226
         6         6         1         1         2         3     -0.00000000
         6         6         1         1         2         4     -0.00031309
         6         6         1         1         3         1      0.00000000
         6         6         1         1         3         2     -0.00000000
         6         6         1         1         3         3      0.00000284
         6         6         1         1         3         4      0.00000000
         6         6         1         1         4         1     -0.00002625
         6         6         1         1         4         2     -0.00031309
         6         6         1         1         4         3      0.00000000
         6         6         1         1         4         4     -0.00019301
         6         6         2         2         1         1     -0.00059532
         6         6         2         2         1         2     -0.00002622
         6         6         2         2         2         1     -0.00002622
         6         6         2         2         2         2      0.00000815
         6         6         3         3         1         1     -0.00059532
         6         6         3         3         1         2     -0.00002622
         6         6         3         3         2         1     -0.00002622
         6         6         3         3         2         2      0.00000815
         6         6         4         4         1         1      0.00000284
         6         6         5         5         1         1     -0.00051598
         6         6         5         5         1         2      0.00034146
         6         6         5         5         1         3      0.00039501
         6         6         5         5         1         4     -0.00000000
         6         6         5         5         1         5     -0.00008191
         6         6         5         5         2         1      0.00034146
         6         6         5         5         2         2     -0.00061397
         6         6         5         5         2         3      0.00004737
         6         6         5         5         2         4      0.00000000
         6         6         5         5         2         5      0.00010305
         6         6         5         5         3         1      0.00039501
         6         6         5         5         3         2      0.00004737
         6         6         5         5         3         3     -0.00046096
         6         6         5         5         3         4      0.00000000
         6         6         5         5         3         5      0.00000806
         6         6         5         5         4         1     -0.00000000
         6         6         5         5         4         2      0.00000000
         6         6         5         5         4         3      0.00000000
         6         6         5         5         4         4      0.00000054
         6         6         5         5         4         5     -0.00000000
         6         6         5         5         5         1     -0.00008191
         6         6         5         5         5         2      0.00010305
         6         6         5         5         5         3      0.00000806
         6         6         5         5         5         4     -0.00000000
         6         6         5         5         5         5     -0.00002810
         6         6         6         6         1         1     -0.00025495
         6         6         6         6         1         2      0.00047607
         6         6         6         6         1         3      0.00002803
         6         6         6         6         2         1      0.00047607
         6         6         6         6         2         2     -0.00060200
         6         6         6         6         2         3     -0.00004160
         6         6         6         6         3         1      0.00002803
         6         6         6         6         3         2     -0.00004160
         6         6         6         6         3         3     -0.00000457
         6         6         7         7         1         1     -0.00025495
         6         6         7         7         1         2      0.00047607
         6         6         7         7         1         3      0.00002803
         6         6         7         7         2         1      0.00047607
         6         6         7         7         2         2     -0.00060200
         6         6         7         7         2         3     -0.00004160
         6         6         7         7         3         1      0.00002803
         6         6         7         7         3         2     -0.00004160
         6         6         7         7         3         3     -0.00000457
         6         6         8         8         1         1      0.00000054
         7         6         1         1         1         1     -0.00016323
         7         6         1         1         1         2     -0.00040993
         7         6         1         1         1         3     -0.00000000
         7         6         1         1         1         4     -0.00027182
         7         6         1         1         2         1     -0.00018511
         7         6         1         1         2         2      0.00002103
         7         6         1         1         2         3      0.00000000
         7         6         1         1         2         4      0.00000843
         7         6         1         1         3         1      0.00000000
         7         6         1         1         3         2     -0.00000000
         7         6         1         1         3         3     -0.00012420
         7         6         1         1         3         4     -0.00000000
         7         6         1         1         4         1     -0.00025653
         7         6         1         1         4         2     -0.00011957
         7         6         1         1         4         3      0.00000000
         7         6         1         1         4         4     -0.00024227
         7         6         2         2         1         1     -0.00062657
         7         6         2         2         1         2     -0.00005064
         7         6         2         2         2         1     -0.00020329
         7         6         2         2         2         2     -0.00012147
         7         6         3         3         1         1     -0.00062657
         7         6         3         3         1         2     -0.00005064
         7         6         3         3         2         1     -0.00020329
         7         6         3         3         2         2     -0.00012147
         7         6         4         4         1         1     -0.00012420
         7         6         5         5         1         1     -0.00060512
         7         6         5         5         1         2      0.00081491
         7         6         5         5         1         3      0.00007075
         7         6         5         5         1         4     -0.00000000
         7         6         5         5         1         5     -0.00008549
         7         6         5         5         2         1      0.00063743
         7         6         5         5         2         2     -0.00057018
         7         6         5         5         2         3     -0.00024756
         7         6         5         5         2         4      0.00000000
         7         6         5         5         2         5      0.00007824
         7         6         5         5         3         1     -0.00012968
         7         6         5         5         3         2     -0.00007232
         7         6         5         5         3         3      0.00016848
         7         6         5         5         3         4      0.00000000
         7         6         5         5         3         5      0.00003172
         7         6         5         5         4         1     -0.00000000
         7         6         5         5         4         2      0.00000000
         7         6         5         5         4         3      0.00000000
         7         6         5         5         4         4     -0.00010107
         7         6         5         5         4         5     -0.00000000
         7         6         5         5         5         1      0.00004210
         7         6         5         5         5         2     -0.00003865
         7         6         5         5         5         3      0.00002441
         7         6         5         5         5         4     -0.00000000
         7         6         5         5         5         5     -0.00010357
         7         6         6         6         1         1     -0.00068200
         7         6         6         6         1         2      0.00090608
         7         6         6         6         1         3      0.00009228
         7         6         6         6         2         1      0.00050755
         7         6         6         6         2         2     -0.00059067
         7         6         6         6         2         3     -0.00004503
         7         6         6         6         3         1      0.00013454
         7         6         6         6         3         2     -0.00012505
         7         6         6         6         3         3     -0.00011502
         7         6         7         7         1         1     -0.00068200
         7         6         7         7         1         2      0.00090608
         7         6         7         7         1         3      0.00009228
         7         6         7         7         2         1      0.00050755
         7         6         7         7         2         2     -0.00059067
         7         6         7         7         2         3     -0.00004503
         7         6         7         7         3         1      0.00013454
         7         6         7         7         3         2     -0.00012505
         7         6         7         7         3         3     -0.00011502
         7         6         8         8         1         1     -0.00010107
         7         7         1         1         1         1     -0.01414057
         7         7         1         1         1         2      0.00342901
         7         7         1         1         1         3      0.00000000
         7         7         1         1         1         4      0.00019598
         7         7         1         1         2         1      0.00342901
         7         7         1         1         2         2     -0.00368995
         7         7         1         1         2         3     -0.00000000
         7         7         1         1         2         4      0.00140271
         7         7         1         1         3         1      0.00000000
         7         7         1         1         3         2     -0.00000000
         7         7         1         1         3         3     -0.00674535
         7         7         1         1         3         4     -0.00000000
         7         7         1         1         4         1      0.00019598
         7         7         1         1         4         2      0.00140271
         7         7         1         1         4         3     -0.00000000
         7         7         1         1         4         4     -0.00730766
         7         7         2         2         1         1     -0.00636150
         7         7         2         2         1         2     -0.00236050
         7         7         2         2         2         1     -0.00236050
         7         7         2         2         2         2     -0.00783733
         7         7         3         3         1         1     -0.00636150
         7         7         3         3         1         2     -0.00236050
         7         7         3         3         2         1     -0.00236050
         7         7         3         3         2         2     -0.00783733
         7         7         4         4         1         1     -0.00674535
         7         7         5         5         1         1     -0.02686562
         7         7         5         5         1         2      0.00588175
         7         7         5         5         1         3      0.00065745
         7         7         5         5         1         4     -0.00000000
         7         7         5         5         1         5      0.00478342
         7         7         5         5         2         1      0.00588175
         7         7         5         5         2         2     -0.01317347
         7         7         5         5         2         3      0.00592003
         7         7         5         5         2         4      0.00000000
         7         7         5         5         2         5     -0.00020995
         7         7         5         5         3         1      0.00065745
         7         7         5         5         3         2      0.00592003
         7         7         5         5         3         3     -0.00666817
         7         7         5         5         3         4      0.00000000
         7         7         5         5         3         5      0.00079754
         7         7         5         5         4         1     -0.00000000
         7         7         5         5         4         2      0.00000000
         7         7         5         5         4         3      0.00000000
         7         7         5         5         4         4     -0.00557093
         7         7         5         5         4         5     -0.00000000
         7         7         5         5         5         1      0.00478342
         7         7         5         5         5         2     -0.00020995
         7         7         5         5         5         3      0.00079754
         7         7         5         5         5         4     -0.00000000
         7         7         5         5         5         5     -0.00388228
         7         7         6         6         1         1     -0.04383343
         7         7         6         6         1         2      0.00990512
         7         7         6         6         1         3      0.00590077
         7         7         6         6         2         1      0.00990512
         7         7         6         6         2         2     -0.00576102
         7         7         6         6         2         3     -0.00073690
         7         7         6         6         3         1      0.00590077
         7         7         6         6         3         2     -0.00073690
         7         7         6         6         3         3     -0.00520230
         7         7         7         7         1         1     -0.04383343
         7         7         7         7         1         2      0.00990512
         7         7         7         7         1         3      0.00590077
         7         7         7         7         2         1      0.00990512
         7         7         7         7         2         2     -0.00576102
         7         7         7         7         2         3     -0.00073690
         7         7         7         7         3         1      0.00590077
         7         7         7         7         3         2     -0.00073690
         7         7         7         7         3         3     -0.00520230
         7         7         8         8         1         1     -0.00557093
         4         1         1         2         1         1      0.00038445
         4         1         1         2         1         2      0.00006862
         4         1         1         2         2         1     -0.00019209
         4         1         1         2         2         2      0.00001842
         4         1         1         2         3         1      0.00056664
         4         1         1         2         3         2      0.00001997
         4         1         1         2         4         1     -0.00043048
         4         1         1         2         4         2      0.00000521
         4         1         2         1         1         1     -0.00020654
         4         1         2         1         1         2      0.00015717
         4         1         2         1         1         3      0.00007636
         4         1         2         1         1         4      0.00001996
         4         1         2         1         2         1      0.00038679
         4         1         2         1         2         2      0.00034994
         4         1         2         1         2         3      0.00000536
         4         1         2         1         2         4      0.00024035
         4         1         3         4         1         1      0.00007636
         4         1         3         4         2         1      0.00000536
         4         1         4         3         1         1      0.00056664
         4         1         4         3         1         2      0.00001997
         4         1         5         6         1         1     -0.00049179
         4         1         5         6         1         2      0.00039575
         4         1         5         6         1         3     -0.00012607
         4         1         5         6         2         1     -0.00018826
[...]
         7         3         6         2         3         2      0.00360404
         7         3         7         3         1         1     -0.00635011
         7         3         7         3         1         2     -0.02310210
         7         3         7         3         2         1      0.00248722
         7         3         7         3         2         2      0.00411986
         7         3         7         3         3         1      0.00230806
         7         3         7         3         3         2      0.00360404
         7         3         8         4         1         1      0.00220578
         6         4         1         6         1         1     -0.00017206
         6         4         1         6         1         2     -0.00017466
         6         4         1         6         1         3      0.00031126
         6         4         1         6         2         1     -0.00002211
         6         4         1         6         2         2      0.00013845
         6         4         1         6         2         3      0.00029038
         6         4         1         6         3         1     -0.00015099
         6         4         1         6         3         2      0.00008284
         6         4         1         6         3         3     -0.00000109
         6         4         1         6         4         1      0.00009518
         6         4         1         6         4         2     -0.00000150
         6         4         1         6         4         3      0.00023051
         6         4         2         5         1         1      0.00036230
         6         4         2         5         1         2      0.00015500
         6         4         2         5         1         3     -0.00033219
         6         4         2         5         1         4      0.00051261
         6         4         2         5         1         5     -0.00030776
         6         4         2         5         2         1     -0.00009921
         6         4         2         5         2         2      0.00009260
         6         4         2         5         2         3      0.00000170
         6         4         2         5         2         4      0.00002912
         6         4         2         5         2         5     -0.00003801
         6         4         3         8         1         1      0.00051261
         6         4         3         8         2         1      0.00002912
         6         4         4         7         1         1     -0.00015099
         6         4         4         7         1         2      0.00008284
         6         4         4         7         1         3     -0.00000109
         6         4         5         2         1         1     -0.00010615
         6         4         5         2         1         2     -0.00060757
         6         4         5         2         2         1     -0.00011479
         6         4         5         2         2         2      0.00058685
         6         4         5         2         3         1      0.00020898
         6         4         5         2         3         2      0.00013971
         6         4         5         2         4         1      0.00007831
         6         4         5         2         4         2      0.00000085
         6         4         5         2         5         1     -0.00002885
         6         4         5         2         5         2     -0.00011916
         6         4         6         1         1         1     -0.00047884
         6         4         6         1         1         2      0.00025792
         6         4         6         1         1         3     -0.00060027
         6         4         6         1         1         4      0.00051915
         6         4         6         1         2         1      0.00039553
         6         4         6         1         2         2     -0.00020751
         6         4         6         1         2         3      0.00057298
         6         4         6         1         2         4     -0.00044253
         6         4         6         1         3         1      0.00007176
         6         4         6         1         3         2      0.00002912
         6         4         6         1         3         3      0.00002394
         6         4         6         1         3         4      0.00000726
         6         4         7         4         1         1     -0.00060027
         6         4         7         4         2         1      0.00057298
         6         4         7         4         3         1      0.00002394
         6         4         8         3         1         1      0.00007831
         6         4         8         3         1         2      0.00000085
         7         4         1         6         1         1     -0.01642101
         7         4         1         6         1         2      0.01268438
         7         4         1         6         1         3      0.00212955
         7         4         1         6         2         1      0.00665022
         7         4         1         6         2         2     -0.00618297
         7         4         1         6         2         3     -0.00079705
         7         4         1         6         3         1     -0.01062342
         7         4         1         6         3         2      0.00204202
         7         4         1         6         3         3      0.00004953
         7         4         1         6         4         1      0.00954110
         7         4         1         6         4         2     -0.00374803
         7         4         1         6         4         3      0.00268266
         7         4         2         5         1         1      0.00506505
         7         4         2         5         1         2      0.00309622
         7         4         2         5         1         3     -0.00409482
         7         4         2         5         1         4      0.00373161
         7         4         2         5         1         5     -0.00216529
         7         4         2         5         2         1     -0.00594228
         7         4         2         5         2         2      0.00281613
         7         4         2         5         2         3      0.00069507
         7         4         2         5         2         4      0.00275793
         7         4         2         5         2         5     -0.00128768
         7         4         3         8         1         1      0.00373161
         7         4         3         8         2         1      0.00275793
         7         4         4         7         1         1     -0.01062342
         7         4         4         7         1         2      0.00204202
         7         4         4         7         1         3      0.00004953
         7         4         5         2         1         1      0.00604523
         7         4         5         2         1         2     -0.01759700
         7         4         5         2         2         1      0.01043279
         7         4         5         2         2         2      0.00521495
         7         4         5         2         3         1     -0.01119729
         7         4         5         2         3         2      0.00048261
         7         4         5         2         4         1      0.00152935
         7         4         5         2         4         2      0.00049019
         7         4         5         2         5         1     -0.00207844
         7         4         5         2         5         2      0.00014302
         7         4         6         1         1         1     -0.01099982
         7         4         6         1         1         2     -0.00317083
         7         4         6         1         1         3     -0.02137980
         7         4         6         1         1         4      0.01381377
         7         4         6         1         2         1      0.00642804
         7         4         6         1         2         2     -0.00329738
         7         4         6         1         2         3      0.00380579
         7         4         6         1         2         4     -0.00321435
         7         4         6         1         3         1      0.00134121
         7         4         6         1         3         2     -0.00077001
         7         4         6         1         3         3      0.00064543
         7         4         6         1         3         4     -0.00003321
         7         4         7         4         1         1     -0.02137980
         7         4         7         4         2         1      0.00380579
         7         4         7         4         3         1      0.00064543
         7         4         8         3         1         1      0.00152935
         7         4         8         3         1         2      0.00049019
         6         5         1         7         1         1     -0.00017206
         6         5         1         7         1         2     -0.00017466
         6         5         1         7         1         3      0.00031126
         6         5         1         7         2         1     -0.00002211
         6         5         1         7         2         2      0.00013845
         6         5         1         7         2         3      0.00029038
         6         5         1         7         3         1      0.00015099
         6         5         1         7         3         2     -0.00008284
         6         5         1         7         3         3      0.00000109
         6         5         1         7         4         1      0.00009518
         6         5         1         7         4         2     -0.00000150
         6         5         1         7         4         3      0.00023051
         6         5         2         8         1         1      0.00051261
         6         5         2         8         2         1      0.00002912
         6         5         3         5         1         1      0.00036230
         6         5         3         5         1         2      0.00015500
         6         5         3         5         1         3     -0.00033219
         6         5         3         5         1         4     -0.00051261
         6         5         3         5         1         5     -0.00030776
         6         5         3         5         2         1     -0.00009921
         6         5         3         5         2         2      0.00009260
         6         5         3         5         2         3      0.00000170
         6         5         3         5         2         4     -0.00002912
         6         5         3         5         2         5     -0.00003801
         6         5         4         6         1         1     -0.00015099
         6         5         4         6         1         2      0.00008284
         6         5         4         6         1         3     -0.00000109
         6         5         5         3         1         1     -0.00010615
         6         5         5         3         1         2     -0.00060757
         6         5         5         3         2         1     -0.00011479
         6         5         5         3         2         2      0.00058685
         6         5         5         3         3         1      0.00020898
         6         5         5         3         3         2      0.00013971
         6         5         5         3         4         1     -0.00007831
         6         5         5         3         4         2     -0.00000085
         6         5         5         3         5         1     -0.00002885
         6         5         5         3         5         2     -0.00011916
         6         5         6         4         1         1     -0.00060027
         6         5         6         4         2         1      0.00057298
         6         5         6         4         3         1      0.00002394
         6         5         7         1         1         1     -0.00047884
         6         5         7         1         1         2      0.00025792
         6         5         7         1         1         3      0.00060027
         6         5         7         1         1         4      0.00051915
         6         5         7         1         2         1      0.00039553
         6         5         7         1         2         2     -0.00020751
         6         5         7         1         2         3     -0.00057298
         6         5         7         1         2         4     -0.00044253
         6         5         7         1         3         1      0.00007176
         6         5         7         1         3         2      0.00002912
         6         5         7         1         3         3     -0.00002394
         6         5         7         1         3         4      0.00000726
         6         5         8         2         1         1      0.00007831
         6         5         8         2         1         2      0.00000085
         7         5         1         7         1         1     -0.01642101
         7         5         1         7         1         2      0.01268438
         7         5         1         7         1         3      0.00212955
         7         5         1         7         2         1      0.00665022
         7         5         1         7         2         2     -0.00618297
         7         5         1         7         2         3     -0.00079705
         7         5         1         7         3         1      0.01062342
         7         5         1         7         3         2     -0.00204202
         7         5         1         7         3         3     -0.00004953
         7         5         1         7         4         1      0.00954110
         7         5         1         7         4         2     -0.00374803
         7         5         1         7         4         3      0.00268266
         7         5         2         8         1         1      0.00373161
         7         5         2         8         2         1      0.00275793
         7         5         3         5         1         1      0.00506505
         7         5         3         5         1         2      0.00309622
         7         5         3         5         1         3     -0.00409482
         7         5         3         5         1         4     -0.00373161
         7         5         3         5         1         5     -0.00216529
         7         5         3         5         2         1     -0.00594228
         7         5         3         5         2         2      0.00281613
         7         5         3         5         2         3      0.00069507
         7         5         3         5         2         4     -0.00275793
         7         5         3         5         2         5     -0.00128768
         7         5         4         6         1         1     -0.01062342
         7         5         4         6         1         2      0.00204202
         7         5         4         6         1         3      0.00004953
         7         5         5         3         1         1      0.00604523
         7         5         5         3         1         2     -0.01759700
         7         5         5         3         2         1      0.01043279
         7         5         5         3         2         2      0.00521495
         7         5         5         3         3         1     -0.01119729
         7         5         5         3         3         2      0.00048261
         7         5         5         3         4         1     -0.00152935
         7         5         5         3         4         2     -0.00049019
         7         5         5         3         5         1     -0.00207844
         7         5         5         3         5         2      0.00014302
         7         5         6         4         1         1     -0.02137980
         7         5         6         4         2         1      0.00380579
         7         5         6         4         3         1      0.00064543
         7         5         7         1         1         1     -0.01099982
         7         5         7         1         1         2     -0.00317083
         7         5         7         1         1         3      0.02137980
         7         5         7         1         1         4      0.01381377
         7         5         7         1         2         1      0.00642804
         7         5         7         1         2         2     -0.00329738
         7         5         7         1         2         3     -0.00380579
         7         5         7         1         2         4     -0.00321435
         7         5         7         1         3         1      0.00134121
         7         5         7         1         3         2     -0.00077001
         7         5         7         1         3         3     -0.00064543
         7         5         7         1         3         4     -0.00003321
         7         5         8         2         1         1      0.00152935
         7         5         8         2         1         2      0.00049019


 RESULTS
 =======

  Reference energy                   -108.606225806201

  Correlated core orbitals:             1.1       1.5
  Orbital energies:                   -15.7968  -15.7961

  CCSD core-core energy                -0.000678537435
  CCSD core-valence energy             -0.002782852002
  CCSD valence correlation energy      -0.434344079144

  CCSD singlet pair energy             -0.331689605429
  CCSD triplet pair energy             -0.106115862866
  CCSD correlation energy              -0.437805468580

 !CCSD total energy                  -109.044031274781

 Timing summary (sec):

 STEP                 CPU(USER)    SYS     CPU(TOT)    WALL
 CCSD iterations         0.17      0.02      0.19      0.18

 Program statistics:

 Available memory in ccsd:                39999004
 Min. memory needed in ccsd:                  7935
 Max. memory used in ccsd:                    9077
 Max. memory used in cckext:                 41170 (26 integral passes)



 **********************************************************************************************************************************
 DATASETS  * FILE   NREC   LENGTH (MB)   RECORD NAMES
              1      20       30.13       500      700      610      900      950      970     1000      129      960     1100   
                                          VAR     GEOM    BASINP   SYMINP    ZMAT    AOBASIS   BASIS     P2S    ABASIS      S 
                                         1400     1410     1200     1210     1080     1600     1650     1300     1700     1380   
                                           T        V       H0       H01     AOSYM     SMH    MOLCAS    ERIS     OPER     JKOP   

              3       5       14.77       500      610      700     1000     2100   
                                          VAR    BASINP    GEOM     BASIS     RHF  

 PROGRAMS   *        TOTAL      CCSD       INT   RESTART
 CPU TIMES  *         0.57      0.24      0.19      0.03
 REAL TIME  *         0.80 SEC
 DISK USED  *        49.46 MB
 **********************************************************************************************************************************
 Molecular orbitals read from record     2100.3  Type=RHF/CANONICAL (state 1.1)
 Occupation numbers read from record     2100.3  Type=RHF/RHF (state 1.1)
 Orbital energies read from record       2100.3  Type=RHF/CANONICAL (state 1.1)
 Redundancy group numbers read from rec  2100.3  Type=RHF/RHF (state 1.1)

 CCSD/cc-pVDZ energy=   -109.044031274781

            CCSD
   -109.04403127
 **********************************************************************************************************************************
 Molpro calculation terminated
