
 Primary working directories    : /scr/yuriaoto/job.023514/molpro.21zJQ8g8Ui
 Secondary working directories  : /scr/yuriaoto/job.023514/molpro.21zJQ8g8Ui
 Wavefunction directory         : /scr/yuriaoto/job.023514/
 Main file repository           : /scr/yuriaoto/job.023514/molpro.21zJQ8g8Ui/

 id        : yuriaoto

 Nodes             nprocs
 t-rex.ufabc.int.br    1

 Using customized tuning parameters: mindgm=8; mindgv=16; mindgc=1; mindgr=1; noblas=0; minvec=7
 default implementation of scratch files=df  


 Variables initialized (933), CPU time= 0.01 sec
 ***,
 memory,40,m
 gprint,orbital,basis,civector
 gthresh,thrprint=0,printci=0.0
 file,3,wfu.dat,old
 
 {cisd,CC_NORM_MAX=10.0
 thresh,printci=0.0,ENERGY=1.0E-10,COEFF=1.0E-12
 print,ref=1
 wf,14,1,0;
 }
 
 Commands  initialized (760), CPU time= 0.01 sec, 617 directives.
 Default parameters read. Elapsed time= 0.06 sec

 Checking input...
 Passed
1


                                         ***  PROGRAM SYSTEM MOLPRO  ***
                                       Copyright, TTI GmbH Stuttgart, 2015
                                    Version 2019.2 linked Abr  7 2019 15:10:35


 **********************************************************************************************************************************
 LABEL *                                                                                 
  64 bit serial version                                                                  DATE: 02-Jun-20          TIME: 01:03:29  
 **********************************************************************************************************************************

 SHA1:             3a8a58c585c929645742fb5a1b7541a4ad1da699
 **********************************************************************************************************************************


 THRESHOLDS:

 ZERO    =  1.00D-12  ONEINT  =  1.00D-12  TWOINT  =  1.00D-11  PREFAC  =  1.00D-14  XXXXXX  =  1.00D-09  EORDER  =  1.00D-04
 ENERGY  =  0.00D+00  ETEST   =  0.00D+00  EDENS   =  0.00D+00  THRDEDEF=  1.00D-06  GRADIENT=  1.00D-02  STEP    =  1.00D-03
 ORBITAL =  1.00D-05  CIVEC   =  1.00D-05  COEFF   =  1.00D-04  PRINTCI =  0.00D+00  PUNCHCI =  9.90D+01  OPTGRAD =  3.00D-04
 OPTENERG=  1.00D-06  OPTSTEP =  3.00D-04  THRGRAD =  1.00D-10  COMPRESS=  1.00D-11  VARMIN  =  1.00D-07  VARMAX  =  1.00D-03
 THRDOUB =  0.00D+00  THRDIV  =  1.00D-05  THRRED  =  1.00D-07  THRPSP  =  1.00D+00  THRDC   =  1.00D-10  THRCS   =  1.00D-10
 THRNRM  =  1.00D-08  THREQ   =  0.00D+00  THRDE   =  1.00D+00  THRREF  =  1.00D-05  SPARFAC =  1.00D+00  THRDLP  =  1.00D-07
 THRDIA  =  1.00D-10  THRDLS  =  1.00D-07  THRGPS  =  0.00D+00  THRKEX  =  0.00D+00  THRDIS  =  2.00D-01  THRVAR  =  1.00D-10
 THRLOC  =  1.00D-06  THRGAP  =  1.00D-06  THRLOCT = -1.00D+00  THRGAPT = -1.00D+00  THRORB  =  1.00D-06  THRMLTP =  0.00D+00
 THRCPQCI=  1.00D-10  KEXTA   =  0.00D+00  THRCOARS=  0.00D+00  SYMTOL  =  1.00D-06  GRADTOL =  1.00D-06  THROVL  =  1.00D-08
 THRORTH =  1.00D-08  GRID    =  1.00D-06  GRIDMAX =  1.00D-03  DTMAX   =  0.00D+00  THROCCDE=  1.00D-01  THROCCDE=  1.00D-01
 THRPRINT=  0.00D+00


 Variable memory set to   40000000 words,  buffer space 



 Permanent file  3  wfu.dat  assigned.  Implementation=df    Size= 14.09 MB


 PROGRAM * RESTART 


 Reading variables from file 3

 _FNUC           =      0.00000000
 _BASIS          =    CC-PVDZ
 _NELEC          =     14.00000000
 _PROGRAM        =    RHF-SCF
 _DMX_SCF        =      0.00000000
 _DMY_SCF        =      0.00000000
 _DMZ_SCF        =      0.00000000
 _HOMO           =      1.20000000
 _EHOMO          =     -0.46392077
 _LUMO           =      1.60000000
 _ELUMO          =     -0.00944908
 _ENERGY         =   -108.60622581
 _ENERGY_METHOD  =    RHF
 _ENERGY_BASIS   =    cc-pVDZ
 _ENUC           =     16.33333333
 _EPS1(1:7)      =    -15.79676678    -1.19737912    -0.55506402     0.94628654     1.05507753     1.91447057
                        2.03771558
 _EPS2(1:3)      =     -0.46392077     0.91310838     1.72264736
 _EPS3(1:3)      =     -0.46392077     0.91310838     1.72264736
 _EPS4           =      1.91447057
 _EPS5(1:7)      =    -15.79614860    -0.90460729     0.23671206     0.86826039     1.39142551     2.07157051
                        3.02778440
 _EPS6(1:3)      =     -0.00944908     0.99822150     2.45091804
 _EPS7(1:3)      =     -0.00944908     0.99822150     2.45091804
 _EPS8           =      2.07157051
 _IPROC_MPP      =      0.00000000
 _IPROC_MPPX     =      0.00000000
 _ORBITAL        =   2100.30000000
 _STATUS         =      1.00000000
 _DATE           =    23-Mar-20
 _LASTORB        =    RHF
 _OUTPUT         =    /scr/yuriaoto/job.022817/RHF.xml
 _PGROUP         =    D2h 
 _TIME           =    14:41:20
 R               =      3.00000000

 Geometry written to block  1 of record 700


 **********************************************************************************************************************************
 DATASETS  * FILE   NREC   LENGTH (MB)   RECORD NAMES
              3       5       14.77       500      610      700     1000     2100   
                                          VAR    BASINP    GEOM     BASIS     RHF  

 PROGRAMS   *        TOTAL   RESTART
 CPU TIMES  *         0.15      0.02
 REAL TIME  *         0.18 SEC
 DISK USED  *        26.84 MB
 **********************************************************************************************************************************


 Recomputing integrals since basis changed


 Using spherical harmonics

 Library entry N      S cc-pVDZ              selected for orbital group  1
 Library entry N      P cc-pVDZ              selected for orbital group  1
 Library entry N      D cc-pVDZ              selected for orbital group  1


 PROGRAM * SEWARD (Integral evaluation for generally contracted gaussian basis sets)     Author: Roland Lindh, 1990

 Geometry written to block  1 of record 700

 Orientation using atomic masses  
 Molecule type: Linear
 User-specified symmetry elements: X,Y,Z
 Symmetry elements: X,Y,Z
 Rotational constants:      28.6329822     28.6329822      0.0000000 GHz  (calculated with average atomic masses)

 Point group  D2h 



 ATOMIC COORDINATES

 NR  ATOM    CHARGE       X              Y              Z

   1  N1      7.00    0.000000000    0.000000000   -1.500000000
   2  N2      7.00    0.000000000    0.000000000    1.500000000

 Bond lengths in Bohr (Angstrom)

 1-2  3.000000000
     ( 1.587531633)


 BASIS DATA

   Nr Sym  Nuc  Type         Exponents   Contraction coefficients

    1.1 Ag    1  1s        9046.000000     0.000700   -0.000153    0.000000
    2.1 Ag    2  1s        1357.000000     0.005389   -0.001208    0.000000
    3.1 Ag                  309.300000     0.027406   -0.005992    0.000000
                             87.730000     0.103207   -0.024544    0.000000
                             28.560000     0.278723   -0.067459    0.000000
                             10.210000     0.448540   -0.158078    0.000000
                              3.838000     0.278238   -0.121831    0.000000
                              0.746600     0.015440    0.549003    0.000000
                              0.224800    -0.002864    0.578815    1.000000
    4.1 Ag    1  2pz         13.550000     0.039919    0.000000
    5.1 Ag    2 -2pz          2.917000     0.217169    0.000000
                              0.797300     0.510319    0.000000
                              0.218500     0.462214    1.000000
    6.1 Ag    1  3d0          0.817000     1.000000
              2  3d0   
    7.1 Ag    1  3d2+         0.817000     1.000000
              2  3d2+  
    1.2 B3u   1  2px         13.550000     0.039919    0.000000
    2.2 B3u   2  2px          2.917000     0.217169    0.000000
                              0.797300     0.510319    0.000000
                              0.218500     0.462214    1.000000
    3.2 B3u   1  3d1+         0.817000     1.000000
              2 -3d1+  
    1.3 B2u   1  2py         13.550000     0.039919    0.000000
    2.3 B2u   2  2py          2.917000     0.217169    0.000000
                              0.797300     0.510319    0.000000
                              0.218500     0.462214    1.000000
    3.3 B2u   1  3d1-         0.817000     1.000000
              2 -3d1-  
    1.4 B1g   1  3d2-         0.817000     1.000000
              2  3d2-  
    1.5 B1u   1  1s        9046.000000     0.000700   -0.000153    0.000000
    2.5 B1u   2 -1s        1357.000000     0.005389   -0.001208    0.000000
    3.5 B1u                 309.300000     0.027406   -0.005992    0.000000
                             87.730000     0.103207   -0.024544    0.000000
                             28.560000     0.278723   -0.067459    0.000000
                             10.210000     0.448540   -0.158078    0.000000
                              3.838000     0.278238   -0.121831    0.000000
                              0.746600     0.015440    0.549003    0.000000
                              0.224800    -0.002864    0.578815    1.000000
    4.5 B1u   1  2pz         13.550000     0.039919    0.000000
    5.5 B1u   2  2pz          2.917000     0.217169    0.000000
                              0.797300     0.510319    0.000000
                              0.218500     0.462214    1.000000
    6.5 B1u   1  3d0          0.817000     1.000000
              2 -3d0   
    7.5 B1u   1  3d2+         0.817000     1.000000
              2 -3d2+  
    1.6 B2g   1  2px         13.550000     0.039919    0.000000
    2.6 B2g   2 -2px          2.917000     0.217169    0.000000
                              0.797300     0.510319    0.000000
                              0.218500     0.462214    1.000000
    3.6 B2g   1  3d1+         0.817000     1.000000
              2  3d1+  
    1.7 B3g   1  2py         13.550000     0.039919    0.000000
    2.7 B3g   2 -2py          2.917000     0.217169    0.000000
                              0.797300     0.510319    0.000000
                              0.218500     0.462214    1.000000
    3.7 B3g   1  3d1-         0.817000     1.000000
              2  3d1-  
    1.8 Au    1  3d2-         0.817000     1.000000
              2 -3d2-  

 NUCLEAR CHARGE:                   14
 NUMBER OF PRIMITIVE AOS:          54
 NUMBER OF SYMMETRY AOS:           52
 NUMBER OF CONTRACTIONS:           28   (    7Ag  +    3B3u +    3B2u +    1B1g +    7B1u +    3B2g +    3B3g +    1Au  )
 NUMBER OF CORE ORBITALS:           2   (    1Ag  +    0B3u +    0B2u +    0B1g +    1B1u +    0B2g +    0B3g +    0Au  )
 NUMBER OF VALENCE ORBITALS:        8   (    2Ag  +    1B3u +    1B2u +    0B1g +    2B1u +    1B2g +    1B3g +    0Au  )


 NUCLEAR REPULSION ENERGY   16.33333333

 EXTRA SYMMETRY OF AOS IN SYMMETRY 1:   1 1 1 1 1 1 2
 EXTRA SYMMETRY OF AOS IN SYMMETRY 5:   1 1 1 1 1 1 2

 Eigenvalues of metric

         1 0.453E-01 0.160E+00 0.100E+01 0.103E+01 0.121E+01 0.168E+01 0.337E+01
         2 0.196E+00 0.113E+01 0.236E+01
         3 0.196E+00 0.113E+01 0.236E+01
         4 0.103E+01
         5 0.148E-01 0.123E+00 0.368E+00 0.923E+00 0.975E+00 0.100E+01 0.211E+01
         6 0.152E+00 0.785E+00 0.137E+01
         7 0.152E+00 0.785E+00 0.137E+01
         8 0.975E+00


 Contracted 2-electron integrals neglected if value below      1.0D-11
 AO integral compression algorithm  1   Integral accuracy      1.0D-11

     0.262 MB (compressed) written to integral file (100.0%)


 NUMBER OF SORTED TWO-ELECTRON INTEGRALS:      13015.     BUFFER LENGTH:  32768
 NUMBER OF SEGMENTS:   1  SEGMENT LENGTH:      13015      RECORD LENGTH: 524288

 Memory used in sort:       0.57 MW

 SORT1 READ       27440. AND WROTE       11779. INTEGRALS IN      1 RECORDS. CPU TIME:     0.00 SEC, REAL TIME:     0.01 SEC
 SORT2 READ       11779. AND WROTE       13015. INTEGRALS IN      1 RECORDS. CPU TIME:     0.02 SEC, REAL TIME:     0.02 SEC

 FILE SIZES:   FILE 1:    30.2 MBYTE,  FILE 4:     4.2 MBYTE,   TOTAL:     34.5 MBYTE

 OPERATOR DM      FOR CENTER  0  COORDINATES:    0.000000    0.000000    0.000000


 **********************************************************************************************************************************
 DATASETS  * FILE   NREC   LENGTH (MB)   RECORD NAMES
              1      19       30.05       500      700      610      900      950      970     1000      129      960     1100   
                                          VAR     GEOM    BASINP   SYMINP    ZMAT    AOBASIS   BASIS     P2S    ABASIS      S 
                                         1400     1410     1200     1210     1080     1600     1650     1300     1700   
                                           T        V       H0       H01     AOSYM     SMH    MOLCAS    ERIS     OPER   

              3       5       14.77       500      610      700     1000     2100   
                                          VAR    BASINP    GEOM     BASIS     RHF  

 PROGRAMS   *        TOTAL       INT   RESTART
 CPU TIMES  *         0.33      0.18      0.02
 REAL TIME  *         0.51 SEC
 DISK USED  *        49.46 MB
 **********************************************************************************************************************************


 PROGRAM * CISD (Closed-shell CI(SD))     Authors: C. Hampel, H.-J. Werner, 1991, M. Deegan, P.J. Knowles, 1992


 Input parameters for THRESH:

 ENERGY   =    1.00D-10
 COEFF    =    1.00D-12
 PRINTCI  =    0.000000
 THRPRINT =    0.000000

 Convergence thresholds:  THRVAR = 1.00D-24  THRDEN = 1.00D-10

 Number of core orbitals:           2 (   1   0   0   0   1   0   0   0 )
 Number of closed-shell orbitals:   5 (   2   1   1   0   1   0   0   0 )
 Number of external orbitals:      21 (   4   2   2   1   5   3   3   1 )

 Molecular orbitals read from record     2100.3  Type=RHF/CANONICAL (state 1.1)

 Number of N-1 electron functions:               5
 Number of N-2 electron functions:              15
 Number of singly external CSFs:                17
 Number of doubly external CSFs:               802
 Total number of CSFs:                         820

 Length of J-op  integral file:               0.00 MB
 Length of K-op  integral file:               0.04 MB

 Integral transformation finished. Total CPU:   0.01 sec, npass=  1  Memory used:   0.07 MW

 Reference energy:                   -108.60622581

 MP2 singlet pair energy:              -0.29939050
 MP2 triplet pair energy:              -0.22929696
 MP2 correlation energy:               -0.52868746
 MP2 total energy:                   -109.13491327

 SCS-MP2 correlation energy:           -0.50194227   (PS=  1.200000  PT=  0.333333)
 SCS-MP2 total energy:               -109.10816807

 ITER.      SQ.NORM     CORR.ENERGY   TOTAL ENERGY   ENERGY CHANGE        DEN1      VAR(S)    VAR(P)  DIIS     TIME  TIME/IT
   1      1.07727751    -0.62183507  -109.22806087    -0.09314760     0.32807074  0.18D-01  0.25D+00  0  0     0.01     0.00
   2      1.26559429    -0.49588476  -109.10211057     0.12595030    -0.27004500  0.19D-01  0.16D+00  1  1     0.01     0.00
   3      1.14164053    -0.31226216  -108.91848797     0.18362260     0.11832106  0.71D-04  0.19D-03  2  2     0.01     0.00
   4      1.13270773    -0.37663413  -108.98285993    -0.06437196     0.00816829  0.18D-04  0.84D-04  3  3     0.01     0.00
   5      1.11833626    -0.37491087  -108.98113668     0.00172326     0.01330718  0.18D-04  0.43D-04  4  4     0.01     0.00
   6      1.14393534    -0.37101708  -108.97724289     0.00389379    -0.02125853  0.21D-05  0.54D-04  5  5     0.01     0.00
   7      1.18346858    -0.37697165  -108.98319745    -0.00595457    -0.02596380  0.51D-06  0.22D-04  6  6     0.02     0.00
   8      1.18204523    -0.37979697  -108.98602277    -0.00282532     0.00129218  0.36D-06  0.27D-05  6  1     0.02     0.00
   9      1.18728823    -0.37979278  -108.98601859     0.00000418    -0.00300269  0.82D-08  0.52D-06  6  2     0.02     0.00
  10      1.18746713    -0.37982907  -108.98605487    -0.00003628    -0.00000714  0.97D-08  0.86D-07  6  4     0.02     0.00
  11      1.18757300    -0.37982943  -108.98605524    -0.00000036    -0.00003127  0.34D-09  0.99D-08  6  3     0.02     0.00
  12      1.18757314    -0.37982949  -108.98605530    -0.00000006     0.00001284  0.13D-09  0.48D-09  6  5     0.02     0.00
  13      1.18758659    -0.37982949  -108.98605530    -0.00000000    -0.00000713  0.14D-10  0.74D-10  6  6     0.03     0.00
  14      1.18758467    -0.37982949  -108.98605530    -0.00000000     0.00000142  0.19D-11  0.93D-11  6  1     0.03     0.00
  15      1.18758533    -0.37982949  -108.98605530    -0.00000000    -0.00000050  0.23D-12  0.15D-11  6  2     0.03     0.00
  16      1.18758464    -0.37982949  -108.98605530    -0.00000000     0.00000031  0.44D-13  0.23D-12  6  4     0.03     0.00
  17      1.18758456    -0.37982949  -108.98605530    -0.00000000    -0.00000002  0.12D-14  0.30D-13  6  5     0.03     0.00
  18      1.18758446    -0.37982949  -108.98605530    -0.00000000     0.00000004  0.21D-15  0.21D-14  6  3     0.04     0.00
  19      1.18758447    -0.37982949  -108.98605530    -0.00000000    -0.00000001  0.31D-16  0.14D-15  6  6     0.04     0.00
  20      1.18758447    -0.37982949  -108.98605530     0.00000000     0.00000000  0.49D-18  0.27D-16  6  1     0.04     0.00
  21      1.18758447    -0.37982949  -108.98605530     0.00000000    -0.00000000  0.45D-18  0.26D-17  6  2     0.04     0.00
  22      1.18758447    -0.37982949  -108.98605530     0.00000000     0.00000000  0.29D-19  0.26D-18  6  5     0.04     0.00
  23      1.18758447    -0.37982949  -108.98605530     0.00000000    -0.00000000  0.12D-20  0.43D-19  6  4     0.05     0.00
  24      1.18758447    -0.37982949  -108.98605530     0.00000000    -0.00000000  0.13D-20  0.48D-20  6  3     0.05     0.00
  25      1.18758447    -0.37982949  -108.98605530     0.00000000    -0.00000000  0.75D-22  0.51D-21  6  6     0.05     0.00
  26      1.18758447    -0.37982949  -108.98605530     0.00000000     0.00000000  0.17D-22  0.54D-22  6  1     0.05     0.00
  27      1.18758447    -0.37982949  -108.98605530     0.00000000     0.00000000  0.12D-23  0.34D-23  6  2     0.05     0.00
  28      1.18758447    -0.37982949  -108.98605530     0.00000000     0.00000000  0.57D-25  0.41D-24  6  5     0.05     0.00


 ! DIPOLE MOMENTS:                      0.00000000     0.00000000     0.00000000



 Norm of t1 vector:      0.08315841      S-energy:    -0.00221175      T1 diagnostic:  0.01859479

 Singles amplitudes (print threshold =  0.000E+00):

         I         SYM. A    A   T(IA)

         1         1         1     -0.00429313
         1         1         2     -0.00224769
         1         1         3      0.00000000
         1         1         4     -0.00459407
         2         1         1     -0.00261989
         2         1         2     -0.01190778
         2         1         3     -0.00000000
         2         1         4     -0.01097719
         3         2         1     -0.03597401
         3         2         2     -0.00785004
         4         3         1     -0.03597401
         4         3         2     -0.00785004
         5         5         1      0.01954983
         5         5         2     -0.00697399
         5         5         3     -0.00092337
         5         5         4     -0.00000000
         5         5         5     -0.00085103

 Doubles amplitudes (print threshold =  0.000E+00):

         I         J         SYM. A    SYM. B    A         B      T(IJ, AB)

         1         1         1         1         1         1     -0.00388306
         1         1         1         1         1         2      0.00241083
         1         1         1         1         1         3     -0.00000000
         1         1         1         1         1         4      0.00177801
         1         1         1         1         2         1      0.00241083
         1         1         1         1         2         2     -0.01109633
         1         1         1         1         2         3      0.00000000
         1         1         1         1         2         4      0.00091180
         1         1         1         1         3         1     -0.00000000
         1         1         1         1         3         2      0.00000000
         1         1         1         1         3         3     -0.00496447
         1         1         1         1         3         4      0.00000000
         1         1         1         1         4         1      0.00177801
         1         1         1         1         4         2      0.00091180
         1         1         1         1         4         3      0.00000000
         1         1         1         1         4         4     -0.00698055
         1         1         2         2         1         1     -0.00509947
         1         1         2         2         1         2      0.00006473
         1         1         2         2         2         1      0.00006473
         1         1         2         2         2         2     -0.00763729
         1         1         3         3         1         1     -0.00509947
         1         1         3         3         1         2      0.00006473
         1         1         3         3         2         1      0.00006473
         1         1         3         3         2         2     -0.00763729
         1         1         4         4         1         1     -0.00496447
         1         1         5         5         1         1     -0.02777280
         1         1         5         5         1         2      0.00720384
         1         1         5         5         1         3      0.00921623
         1         1         5         5         1         4      0.00000000
         1         1         5         5         1         5     -0.00284929
         1         1         5         5         2         1      0.00720384
         1         1         5         5         2         2     -0.00407776
         1         1         5         5         2         3     -0.00162975
         1         1         5         5         2         4     -0.00000000
         1         1         5         5         2         5      0.00193639
         1         1         5         5         3         1      0.00921623
         1         1         5         5         3         2     -0.00162975
         1         1         5         5         3         3     -0.00674113
         1         1         5         5         3         4     -0.00000000
         1         1         5         5         3         5      0.00203421
         1         1         5         5         4         1      0.00000000
         1         1         5         5         4         2     -0.00000000
         1         1         5         5         4         3     -0.00000000
         1         1         5         5         4         4     -0.00488999
         1         1         5         5         4         5     -0.00000000
         1         1         5         5         5         1     -0.00284929
         1         1         5         5         5         2      0.00193639
         1         1         5         5         5         3      0.00203421
         1         1         5         5         5         4     -0.00000000
         1         1         5         5         5         5     -0.00328801
         1         1         6         6         1         1     -0.01633477
         1         1         6         6         1         2      0.00727849
         1         1         6         6         1         3     -0.00322964
         1         1         6         6         2         1      0.00727849
         1         1         6         6         2         2     -0.00466780
         1         1         6         6         2         3      0.00201348
         1         1         6         6         3         1     -0.00322964
         1         1         6         6         3         2      0.00201348
         1         1         6         6         3         3     -0.00435984
         1         1         7         7         1         1     -0.01633477
         1         1         7         7         1         2      0.00727849
         1         1         7         7         1         3     -0.00322964
         1         1         7         7         2         1      0.00727849
         1         1         7         7         2         2     -0.00466780
         1         1         7         7         2         3      0.00201348
         1         1         7         7         3         1     -0.00322964
         1         1         7         7         3         2      0.00201348
         1         1         7         7         3         3     -0.00435984
         1         1         8         8         1         1     -0.00488999
         2         1         1         1         1         1      0.00861138
         2         1         1         1         1         2     -0.00592684
         2         1         1         1         1         3     -0.00000000
         2         1         1         1         1         4      0.00034499
         2         1         1         1         2         1      0.00066513
         2         1         1         1         2         2     -0.00812219
         2         1         1         1         2         3      0.00000000
         2         1         1         1         2         4      0.00095484
         2         1         1         1         3         1     -0.00000000
         2         1         1         1         3         2      0.00000000
         2         1         1         1         3         3      0.00102575
         2         1         1         1         3         4      0.00000000
         2         1         1         1         4         1      0.00290002
         2         1         1         1         4         2      0.00053874
         2         1         1         1         4         3      0.00000000
         2         1         1         1         4         4     -0.00226304
         2         1         2         2         1         1      0.00168178
         2         1         2         2         1         2      0.00156978
         2         1         2         2         2         1      0.00288865
         2         1         2         2         2         2     -0.00218078
         2         1         3         3         1         1      0.00168178
         2         1         3         3         1         2      0.00156978
         2         1         3         3         2         1      0.00288865
         2         1         3         3         2         2     -0.00218078
         2         1         4         4         1         1      0.00102575
         2         1         5         5         1         1     -0.02148646
         2         1         5         5         1         2      0.00406914
         2         1         5         5         1         3      0.01156609
         2         1         5         5         1         4     -0.00000000
         2         1         5         5         1         5     -0.00593292
         2         1         5         5         2         1      0.01114989
         2         1         5         5         2         2      0.00341353
         2         1         5         5         2         3     -0.00877367
         2         1         5         5         2         4      0.00000000
         2         1         5         5         2         5      0.00164294
         2         1         5         5         3         1      0.01078129
         2         1         5         5         3         2     -0.00496829
         2         1         5         5         3         3     -0.00154751
         2         1         5         5         3         4      0.00000000
         2         1         5         5         3         5      0.00111170
         2         1         5         5         4         1      0.00000000
         2         1         5         5         4         2      0.00000000
         2         1         5         5         4         3      0.00000000
         2         1         5         5         4         4      0.00169540
         2         1         5         5         4         5      0.00000000
         2         1         5         5         5         1     -0.01065264
         2         1         5         5         5         2      0.00333136
         2         1         5         5         5         3      0.00192450
         2         1         5         5         5         4      0.00000000
         2         1         5         5         5         5      0.00016616
         2         1         6         6         1         1      0.00879876
         2         1         6         6         1         2     -0.00069413
         2         1         6         6         1         3     -0.00534997
         2         1         6         6         2         1      0.00123602
         2         1         6         6         2         2      0.00046092
         2         1         6         6         2         3      0.00163123
         2         1         6         6         3         1     -0.01148898
         2         1         6         6         3         2      0.00321272
         2         1         6         6         3         3      0.00062988
         2         1         7         7         1         1      0.00879876
         2         1         7         7         1         2     -0.00069413
         2         1         7         7         1         3     -0.00534997
         2         1         7         7         2         1      0.00123602
         2         1         7         7         2         2      0.00046092
         2         1         7         7         2         3      0.00163123
         2         1         7         7         3         1     -0.01148898
         2         1         7         7         3         2      0.00321272
         2         1         7         7         3         3      0.00062988
         2         1         8         8         1         1      0.00169540
         2         2         1         1         1         1     -0.01921166
         2         2         1         1         1         2     -0.00391604
         2         2         1         1         1         3      0.00000000
         2         2         1         1         1         4     -0.00310833
         2         2         1         1         2         1     -0.00391604
         2         2         1         1         2         2     -0.00814869
         2         2         1         1         2         3     -0.00000000
         2         2         1         1         2         4      0.00675933
         2         2         1         1         3         1      0.00000000
         2         2         1         1         3         2     -0.00000000
         2         2         1         1         3         3     -0.00111565
         2         2         1         1         3         4     -0.00000000
         2         2         1         1         4         1     -0.00310833
         2         2         1         1         4         2      0.00675933
         2         2         1         1         4         3     -0.00000000
         2         2         1         1         4         4     -0.01174326
         2         2         2         2         1         1     -0.00188363
         2         2         2         2         1         2     -0.00261177
         2         2         2         2         2         1     -0.00261177
         2         2         2         2         2         2     -0.01285417
         2         2         3         3         1         1     -0.00188363
         2         2         3         3         1         2     -0.00261177
         2         2         3         3         2         1     -0.00261177
         2         2         3         3         2         2     -0.01285417
         2         2         4         4         1         1     -0.00111565
         2         2         5         5         1         1     -0.06886510
         2         2         5         5         1         2      0.02617040
         2         2         5         5         1         3      0.00011658
         2         2         5         5         1         4      0.00000000
         2         2         5         5         1         5      0.00227182
         2         2         5         5         2         1      0.02617040
         2         2         5         5         2         2     -0.02570493
         2         2         5         5         2         3      0.00213211
         2         2         5         5         2         4     -0.00000000
         2         2         5         5         2         5      0.00012865
         2         2         5         5         3         1      0.00011658
         2         2         5         5         3         2      0.00213211
         2         2         5         5         3         3     -0.00381308
         2         2         5         5         3         4     -0.00000000
         2         2         5         5         3         5      0.00394272
         2         2         5         5         4         1      0.00000000
         2         2         5         5         4         2     -0.00000000
         2         2         5         5         4         3     -0.00000000
         2         2         5         5         4         4     -0.00090878
         2         2         5         5         4         5     -0.00000000
         2         2         5         5         5         1      0.00227182
         2         2         5         5         5         2      0.00012865
         2         2         5         5         5         3      0.00394272
         2         2         5         5         5         4     -0.00000000
         2         2         5         5         5         5     -0.00578936
         2         2         6         6         1         1     -0.02568198
         2         2         6         6         1         2      0.00297359
         2         2         6         6         1         3      0.00859361
         2         2         6         6         2         1      0.00297359
         2         2         6         6         2         2     -0.00199307
         2         2         6         6         2         3     -0.00055921
         2         2         6         6         3         1      0.00859361
         2         2         6         6         3         2     -0.00055921
         2         2         6         6         3         3     -0.00624450
         2         2         7         7         1         1     -0.02568198
         2         2         7         7         1         2      0.00297359
         2         2         7         7         1         3      0.00859361
         2         2         7         7         2         1      0.00297359
         2         2         7         7         2         2     -0.00199307
         2         2         7         7         2         3     -0.00055921
         2         2         7         7         3         1      0.00859361
         2         2         7         7         3         2     -0.00055921
         2         2         7         7         3         3     -0.00624450
         2         2         8         8         1         1     -0.00090878
         3         3         1         1         1         1     -0.00322154
         3         3         1         1         1         2      0.00230257
         3         3         1         1         1         3     -0.00145024
         3         3         1         1         1         4      0.00152107
         3         3         1         1         2         1      0.00230257
         3         3         1         1         2         2     -0.00737670
         3         3         1         1         2         3     -0.00341355
         3         3         1         1         2         4     -0.00014805
         3         3         1         1         3         1     -0.00145024
         3         3         1         1         3         2     -0.00341355
         3         3         1         1         3         3     -0.00876331
         3         3         1         1         3         4      0.00356286
         3         3         1         1         4         1      0.00152107
         3         3         1         1         4         2     -0.00014805
         3         3         1         1         4         3      0.00356286
         3         3         1         1         4         4     -0.00298623
         3         3         2         2         1         1     -0.01822603
         3         3         2         2         1         2      0.00083734
         3         3         2         2         2         1      0.00083734
         3         3         2         2         2         2     -0.01098454
         3         3         3         3         1         1     -0.00104539
         3         3         3         3         1         2     -0.00012720
         3         3         3         3         2         1     -0.00012720
         3         3         3         3         2         2     -0.00077239
         3         3         4         4         1         1     -0.00876331
         3         3         5         5         1         1     -0.01960200
         3         3         5         5         1         2      0.00258644
         3         3         5         5         1         3      0.00136790
         3         3         5         5         1         4     -0.00509306
         3         3         5         5         1         5      0.00083499
         3         3         5         5         2         1      0.00258644
         3         3         5         5         2         2     -0.00168777
         3         3         5         5         2         3      0.00081186
         3         3         5         5         2         4     -0.00043245
         3         3         5         5         2         5      0.00069636
         3         3         5         5         3         1      0.00136790
         3         3         5         5         3         2      0.00081186
         3         3         5         5         3         3     -0.00339244
         3         3         5         5         3         4     -0.00051300
         3         3         5         5         3         5     -0.00034135
         3         3         5         5         4         1     -0.00509306
         3         3         5         5         4         2     -0.00043245
         3         3         5         5         4         3     -0.00051300
         3         3         5         5         4         4     -0.00602352
         3         3         5         5         4         5      0.00206207
         3         3         5         5         5         1      0.00083499
         3         3         5         5         5         2      0.00069636
         3         3         5         5         5         3     -0.00034135
         3         3         5         5         5         4      0.00206207
         3         3         5         5         5         5     -0.00123998
         3         3         6         6         1         1     -0.17216890
         3         3         6         6         1         2      0.03041424
         3         3         6         6         1         3     -0.00293507
         3         3         6         6         2         1      0.03041424
         3         3         6         6         2         2     -0.01456019
         3         3         6         6         2         3      0.00128442
         3         3         6         6         3         1     -0.00293507
         3         3         6         6         3         2      0.00128442
         3         3         6         6         3         3     -0.00490537
         3         3         7         7         1         1     -0.02477419
         3         3         7         7         1         2      0.00340354
         3         3         7         7         1         3     -0.00087926
         3         3         7         7         2         1      0.00340354
         3         3         7         7         2         2     -0.00100249
         3         3         7         7         2         3      0.00009284
         3         3         7         7         3         1     -0.00087926
         3         3         7         7         3         2      0.00009284
         3         3         7         7         3         3     -0.00034795
         3         3         8         8         1         1     -0.00602352
         4         4         1         1         1         1     -0.00322154
         4         4         1         1         1         2      0.00230257
         4         4         1         1         1         3      0.00145024
         4         4         1         1         1         4      0.00152107
         4         4         1         1         2         1      0.00230257
         4         4         1         1         2         2     -0.00737670
         4         4         1         1         2         3      0.00341355
         4         4         1         1         2         4     -0.00014805
         4         4         1         1         3         1      0.00145024
         4         4         1         1         3         2      0.00341355
         4         4         1         1         3         3     -0.00876331
         4         4         1         1         3         4     -0.00356286
         4         4         1         1         4         1      0.00152107
         4         4         1         1         4         2     -0.00014805
         4         4         1         1         4         3     -0.00356286
         4         4         1         1         4         4     -0.00298623
         4         4         2         2         1         1     -0.00104539
         4         4         2         2         1         2     -0.00012720
         4         4         2         2         2         1     -0.00012720
         4         4         2         2         2         2     -0.00077239
         4         4         3         3         1         1     -0.01822603
         4         4         3         3         1         2      0.00083734
         4         4         3         3         2         1      0.00083734
         4         4         3         3         2         2     -0.01098454
         4         4         4         4         1         1     -0.00876331
         4         4         5         5         1         1     -0.01960200
         4         4         5         5         1         2      0.00258644
         4         4         5         5         1         3      0.00136790
         4         4         5         5         1         4      0.00509306
         4         4         5         5         1         5      0.00083499
         4         4         5         5         2         1      0.00258644
         4         4         5         5         2         2     -0.00168777
         4         4         5         5         2         3      0.00081186
         4         4         5         5         2         4      0.00043245
         4         4         5         5         2         5      0.00069636
         4         4         5         5         3         1      0.00136790
         4         4         5         5         3         2      0.00081186
         4         4         5         5         3         3     -0.00339244
         4         4         5         5         3         4      0.00051300
         4         4         5         5         3         5     -0.00034135
         4         4         5         5         4         1      0.00509306
         4         4         5         5         4         2      0.00043245
         4         4         5         5         4         3      0.00051300
         4         4         5         5         4         4     -0.00602352
         4         4         5         5         4         5     -0.00206207
         4         4         5         5         5         1      0.00083499
         4         4         5         5         5         2      0.00069636
         4         4         5         5         5         3     -0.00034135
         4         4         5         5         5         4     -0.00206207
         4         4         5         5         5         5     -0.00123998
         4         4         6         6         1         1     -0.02477419
         4         4         6         6         1         2      0.00340354
         4         4         6         6         1         3     -0.00087926
         4         4         6         6         2         1      0.00340354
         4         4         6         6         2         2     -0.00100249
         4         4         6         6         2         3      0.00009284
         4         4         6         6         3         1     -0.00087926
         4         4         6         6         3         2      0.00009284
         4         4         6         6         3         3     -0.00034795
         4         4         7         7         1         1     -0.17216890
         4         4         7         7         1         2      0.03041424
         4         4         7         7         1         3     -0.00293507
         4         4         7         7         2         1      0.03041424
         4         4         7         7         2         2     -0.01456019
         4         4         7         7         2         3      0.00128442
         4         4         7         7         3         1     -0.00293507
         4         4         7         7         3         2      0.00128442
         4         4         7         7         3         3     -0.00490537
         4         4         8         8         1         1     -0.00602352
         5         5         1         1         1         1     -0.01268873
         5         5         1         1         1         2      0.00299613
         5         5         1         1         1         3      0.00000000
         5         5         1         1         1         4      0.00002121
         5         5         1         1         2         1      0.00299613
         5         5         1         1         2         2     -0.00312930
         5         5         1         1         2         3     -0.00000000
         5         5         1         1         2         4      0.00129476
         5         5         1         1         3         1      0.00000000
         5         5         1         1         3         2     -0.00000000
         5         5         1         1         3         3     -0.00614782
         5         5         1         1         3         4     -0.00000000
         5         5         1         1         4         1      0.00002121
         5         5         1         1         4         2      0.00129476
         5         5         1         1         4         3     -0.00000000
         5         5         1         1         4         4     -0.00682438
         5         5         2         2         1         1     -0.00584991
         5         5         2         2         1         2     -0.00233506
         5         5         2         2         2         1     -0.00233506
         5         5         2         2         2         2     -0.00725606
         5         5         3         3         1         1     -0.00584991
         5         5         3         3         1         2     -0.00233506
         5         5         3         3         2         1     -0.00233506
         5         5         3         3         2         2     -0.00725606
         5         5         4         4         1         1     -0.00614782
         5         5         5         5         1         1     -0.02411340
         5         5         5         5         1         2      0.00547291
         5         5         5         5         1         3      0.00049422
         5         5         5         5         1         4     -0.00000000
         5         5         5         5         1         5      0.00456895
         5         5         5         5         2         1      0.00547291
         5         5         5         5         2         2     -0.01213993
         5         5         5         5         2         3      0.00546105
         5         5         5         5         2         4      0.00000000
         5         5         5         5         2         5     -0.00024735
         5         5         5         5         3         1      0.00049422
         5         5         5         5         3         2      0.00546105
         5         5         5         5         3         3     -0.00611432
         5         5         5         5         3         4      0.00000000
         5         5         5         5         3         5      0.00076063
         5         5         5         5         4         1     -0.00000000
         5         5         5         5         4         2      0.00000000
         5         5         5         5         4         3      0.00000000
         5         5         5         5         4         4     -0.00524991
         5         5         5         5         4         5     -0.00000000
         5         5         5         5         5         1      0.00456895
         5         5         5         5         5         2     -0.00024735
         5         5         5         5         5         3      0.00076063
         5         5         5         5         5         4     -0.00000000
         5         5         5         5         5         5     -0.00377017
         5         5         6         6         1         1     -0.04095864
         5         5         6         6         1         2      0.00931993
         5         5         6         6         1         3      0.00566073
         5         5         6         6         2         1      0.00931993
         5         5         6         6         2         2     -0.00535139
         5         5         6         6         2         3     -0.00075034
         5         5         6         6         3         1      0.00566073
         5         5         6         6         3         2     -0.00075034
         5         5         6         6         3         3     -0.00498745
         5         5         7         7         1         1     -0.04095864
         5         5         7         7         1         2      0.00931993
         5         5         7         7         1         3      0.00566073
         5         5         7         7         2         1      0.00931993
         5         5         7         7         2         2     -0.00535139
         5         5         7         7         2         3     -0.00075034
         5         5         7         7         3         1      0.00566073
         5         5         7         7         3         2     -0.00075034
         5         5         7         7         3         3     -0.00498745
         5         5         8         8         1         1     -0.00524991
         3         1         1         2         1         1      0.00431057
         3         1         1         2         1         2      0.00062247
         3         1         1         2         2         1     -0.00433619
         3         1         1         2         2         2     -0.00166329
         3         1         1         2         3         1      0.00233974
         3         1         1         2         3         2     -0.00231245
         3         1         1         2         4         1     -0.00265972
         3         1         1         2         4         2     -0.00035522
         3         1         2         1         1         1      0.00854289
         3         1         2         1         1         2     -0.01136652
         3         1         2         1         1         3      0.00103218
         3         1         2         1         1         4     -0.00317660
         3         1         2         1         2         1      0.00147916
         3         1         2         1         2         2      0.00194282
         3         1         2         1         2         3     -0.00039161
         3         1         2         1         2         4     -0.00276596
         3         1         3         4         1         1      0.00103218
         3         1         3         4         2         1     -0.00039161
         3         1         4         3         1         1      0.00233974
         3         1         4         3         1         2     -0.00231245
         3         1         5         6         1         1     -0.02402004
         3         1         5         6         1         2      0.00805280
         3         1         5         6         1         3     -0.00699012
         3         1         5         6         2         1     -0.00031909
         3         1         5         6         2         2      0.00105713
         3         1         5         6         2         3      0.00203923
         3         1         5         6         3         1      0.00119678
         3         1         5         6         3         2     -0.00347091
         3         1         5         6         3         3      0.00037323
         3         1         5         6         4         1     -0.01414631
         3         1         5         6         4         2      0.00358624
         3         1         5         6         4         3     -0.00108866
         3         1         5         6         5         1      0.00494239
         3         1         5         6         5         2     -0.00156363
         3         1         5         6         5         3     -0.00031536
         3         1         6         5         1         1     -0.02577778
         3         1         6         5         1         2      0.00002200
         3         1         6         5         1         3      0.00666062
         3         1         6         5         1         4     -0.00784067
         3         1         6         5         1         5      0.00240398
         3         1         6         5         2         1      0.01409106
         3         1         6         5         2         2      0.00078171
         3         1         6         5         2         3     -0.00816899
         3         1         6         5         2         4      0.00170991
         3         1         6         5         2         5     -0.00049257
         3         1         6         5         3         1     -0.01052759
         3         1         6         5         3         2      0.00379335
         3         1         6         5         3         3      0.00079803
         3         1         6         5         3         4     -0.00055681
         3         1         6         5         3         5     -0.00084614
         3         1         7         8         1         1     -0.00784067
         3         1         7         8         2         1      0.00170991
         3         1         7         8         3         1     -0.00055681
         3         1         8         7         1         1     -0.01414631
         3         1         8         7         1         2      0.00358624
         3         1         8         7         1         3     -0.00108866
         3         2         1         2         1         1     -0.00347011
         3         2         1         2         1         2     -0.00175745
         3         2         1         2         2         1     -0.00055916
         3         2         1         2         2         2     -0.00211433
         3         2         1         2         3         1     -0.00180411
         3         2         1         2         3         2     -0.00830106
         3         2         1         2         4         1      0.00100905
         3         2         1         2         4         2      0.00163407
         3         2         2         1         1         1     -0.01422331
         3         2         2         1         1         2     -0.00543060
         3         2         2         1         1         3     -0.00095109
         3         2         2         1         1         4     -0.00098625
         3         2         2         1         2         1     -0.00006914
         3         2         2         1         2         2      0.00561925
         3         2         2         1         2         3     -0.00192074
         3         2         2         1         2         4     -0.00775373
         3         2         3         4         1         1     -0.00095109
         3         2         3         4         2         1     -0.00192074
         3         2         4         3         1         1     -0.00180411
         3         2         4         3         1         2     -0.00830106
         3         2         5         6         1         1     -0.01846516
         3         2         5         6         1         2      0.00433234
         3         2         5         6         1         3     -0.00214494
         3         2         5         6         2         1      0.00956838
         3         2         5         6         2         2     -0.00425237
         3         2         5         6         2         3     -0.00103489
         3         2         5         6         3         1      0.00274016
         3         2         5         6         3         2      0.00120597
         3         2         5         6         3         3      0.00073278
         3         2         5         6         4         1      0.00686175
         3         2         5         6         4         2     -0.00002712
         3         2         5         6         4         3     -0.00453378
         3         2         5         6         5         1     -0.00436934
         3         2         5         6         5         2      0.00103020
         3         2         5         6         5         3      0.00091305
         3         2         6         5         1         1     -0.05470329
         3         2         6         5         1         2      0.02292857
         3         2         6         5         1         3      0.00186507
         3         2         6         5         1         4      0.00355590
         3         2         6         5         1         5     -0.00316200
         3         2         6         5         2         1      0.01429622
         3         2         6         5         2         2     -0.01417297
         3         2         6         5         2         3      0.00025475
         3         2         6         5         2         4     -0.00035237
         3         2         6         5         2         5      0.00273129
         3         2         6         5         3         1      0.00271593
         3         2         6         5         3         2     -0.00167801
         3         2         6         5         3         3      0.00309180
         3         2         6         5         3         4     -0.00105081
         3         2         6         5         3         5     -0.00313635
         3         2         7         8         1         1      0.00355590
         3         2         7         8         2         1     -0.00035237
         3         2         7         8         3         1     -0.00105081
         3         2         8         7         1         1      0.00686175
         3         2         8         7         1         2     -0.00002712
         3         2         8         7         1         3     -0.00453378
         4         1         1         3         1         1      0.00431057
         4         1         1         3         1         2      0.00062247
         4         1         1         3         2         1     -0.00433619
         4         1         1         3         2         2     -0.00166329
         4         1         1         3         3         1     -0.00233974
         4         1         1         3         3         2      0.00231245
         4         1         1         3         4         1     -0.00265972
         4         1         1         3         4         2     -0.00035522
         4         1         2         4         1         1      0.00103218
         4         1         2         4         2         1     -0.00039161
         4         1         3         1         1         1      0.00854289
         4         1         3         1         1         2     -0.01136652
         4         1         3         1         1         3     -0.00103218
         4         1         3         1         1         4     -0.00317660
         4         1         3         1         2         1      0.00147916
         4         1         3         1         2         2      0.00194282
         4         1         3         1         2         3      0.00039161
         4         1         3         1         2         4     -0.00276596
         4         1         4         2         1         1      0.00233974
         4         1         4         2         1         2     -0.00231245
         4         1         5         7         1         1     -0.02402004
         4         1         5         7         1         2      0.00805280
         4         1         5         7         1         3     -0.00699012
         4         1         5         7         2         1     -0.00031909
         4         1         5         7         2         2      0.00105713
         4         1         5         7         2         3      0.00203923
         4         1         5         7         3         1      0.00119678
         4         1         5         7         3         2     -0.00347091
         4         1         5         7         3         3      0.00037323
         4         1         5         7         4         1      0.01414631
         4         1         5         7         4         2     -0.00358624
         4         1         5         7         4         3      0.00108866
         4         1         5         7         5         1      0.00494239
         4         1         5         7         5         2     -0.00156363
         4         1         5         7         5         3     -0.00031536
         4         1         6         8         1         1     -0.00784067
         4         1         6         8         2         1      0.00170991
         4         1         6         8         3         1     -0.00055681
         4         1         7         5         1         1     -0.02577778
         4         1         7         5         1         2      0.00002200
         4         1         7         5         1         3      0.00666062
         4         1         7         5         1         4      0.00784067
         4         1         7         5         1         5      0.00240398
         4         1         7         5         2         1      0.01409106
         4         1         7         5         2         2      0.00078171
         4         1         7         5         2         3     -0.00816899
         4         1         7         5         2         4     -0.00170991
         4         1         7         5         2         5     -0.00049257
         4         1         7         5         3         1     -0.01052759
         4         1         7         5         3         2      0.00379335
         4         1         7         5         3         3      0.00079803
         4         1         7         5         3         4      0.00055681
         4         1         7         5         3         5     -0.00084614
         4         1         8         6         1         1     -0.01414631
         4         1         8         6         1         2      0.00358624
         4         1         8         6         1         3     -0.00108866
         4         2         1         3         1         1     -0.00347011
         4         2         1         3         1         2     -0.00175745
         4         2         1         3         2         1     -0.00055916
         4         2         1         3         2         2     -0.00211433
         4         2         1         3         3         1      0.00180411
         4         2         1         3         3         2      0.00830106
         4         2         1         3         4         1      0.00100905
         4         2         1         3         4         2      0.00163407
         4         2         2         4         1         1     -0.00095109
         4         2         2         4         2         1     -0.00192074
         4         2         3         1         1         1     -0.01422331
         4         2         3         1         1         2     -0.00543060
         4         2         3         1         1         3      0.00095109
         4         2         3         1         1         4     -0.00098625
         4         2         3         1         2         1     -0.00006914
         4         2         3         1         2         2      0.00561925
         4         2         3         1         2         3      0.00192074
         4         2         3         1         2         4     -0.00775373
         4         2         4         2         1         1     -0.00180411
         4         2         4         2         1         2     -0.00830106
         4         2         5         7         1         1     -0.01846516
         4         2         5         7         1         2      0.00433234
         4         2         5         7         1         3     -0.00214494
         4         2         5         7         2         1      0.00956838
         4         2         5         7         2         2     -0.00425237
         4         2         5         7         2         3     -0.00103489
         4         2         5         7         3         1      0.00274016
         4         2         5         7         3         2      0.00120597
         4         2         5         7         3         3      0.00073278
         4         2         5         7         4         1     -0.00686175
         4         2         5         7         4         2      0.00002712
         4         2         5         7         4         3      0.00453378
         4         2         5         7         5         1     -0.00436934
         4         2         5         7         5         2      0.00103020
         4         2         5         7         5         3      0.00091305
         4         2         6         8         1         1      0.00355590
         4         2         6         8         2         1     -0.00035237
         4         2         6         8         3         1     -0.00105081
         4         2         7         5         1         1     -0.05470329
         4         2         7         5         1         2      0.02292857
         4         2         7         5         1         3      0.00186507
         4         2         7         5         1         4     -0.00355590
         4         2         7         5         1         5     -0.00316200
         4         2         7         5         2         1      0.01429622
         4         2         7         5         2         2     -0.01417297
         4         2         7         5         2         3      0.00025475
         4         2         7         5         2         4      0.00035237
         4         2         7         5         2         5      0.00273129
         4         2         7         5         3         1      0.00271593
         4         2         7         5         3         2     -0.00167801
         4         2         7         5         3         3      0.00309180
         4         2         7         5         3         4      0.00105081
         4         2         7         5         3         5     -0.00313635
         4         2         8         6         1         1      0.00686175
         4         2         8         6         1         2     -0.00002712
         4         2         8         6         1         3     -0.00453378
         4         3         1         4         1         1     -0.00145024
         4         3         1         4         2         1     -0.00341355
         4         3         1         4         3         1      0.00594725
         4         3         1         4         4         1      0.00356286
         4         3         2         3         1         1     -0.00175680
         4         3         2         3         1         2      0.00003910
         4         3         2         3         2         1      0.00003910
         4         3         2         3         2         2     -0.00143340
         4         3         3         2         1         1     -0.01542384
         4         3         3         2         1         2      0.00092543
         4         3         3         2         2         1      0.00092543
         4         3         3         2         2         2     -0.00877875
         4         3         4         1         1         1     -0.00145024
         4         3         4         1         1         2     -0.00341355
         4         3         4         1         1         3     -0.00594725
         4         3         4         1         1         4      0.00356286
         4         3         5         8         1         1     -0.00509306
         4         3         5         8         2         1     -0.00043245
         4         3         5         8         3         1     -0.00051300
         4         3         5         8         4         1      0.00387945
         4         3         5         8         5         1      0.00206207
         4         3         6         7         1         1     -0.05967579
         4         3         6         7         1         2      0.00855795
         4         3         6         7         1         3     -0.00191774
         4         3         6         7         2         1      0.00855795
         4         3         6         7         2         2     -0.00241458
         4         3         6         7         2         3      0.00036475
         4         3         6         7         3         1     -0.00191774
         4         3         6         7         3         2      0.00036475
         4         3         6         7         3         3     -0.00091983
         4         3         7         6         1         1     -0.08771891
         4         3         7         6         1         2      0.01845275
         4         3         7         6         1         3     -0.00013807
         4         3         7         6         2         1      0.01845275
         4         3         7         6         2         2     -0.01114313
         4         3         7         6         2         3      0.00082683
         4         3         7         6         3         1     -0.00013807
         4         3         7         6         3         2      0.00082683
         4         3         7         6         3         3     -0.00363759
         4         3         8         5         1         1     -0.00509306
         4         3         8         5         1         2     -0.00043245
         4         3         8         5         1         3     -0.00051300
         4         3         8         5         1         4     -0.00387945
         4         3         8         5         1         5      0.00206207
         5         1         1         5         1         1     -0.00315979
         5         1         1         5         1         2     -0.00448075
         5         1         1         5         1         3      0.00508279
         5         1         1         5         1         4      0.00000000
         5         1         1         5         1         5      0.00087556
         5         1         1         5         2         1      0.00544685
         5         1         1         5         2         2     -0.00106726
         5         1         1         5         2         3     -0.00485926
         5         1         1         5         2         4     -0.00000000
         5         1         1         5         2         5      0.00149402
         5         1         1         5         3         1     -0.00000000
         5         1         1         5         3         2     -0.00000000
         5         1         1         5         3         3     -0.00000000
         5         1         1         5         3         4     -0.00531740
         5         1         1         5         3         5     -0.00000000
         5         1         1         5         4         1      0.00776519
         5         1         1         5         4         2     -0.00169838
         5         1         1         5         4         3     -0.00017622
         5         1         1         5         4         4     -0.00000000
         5         1         1         5         4         5     -0.00278113
         5         1         2         6         1         1      0.01075563
         5         1         2         6         1         2     -0.00554155
         5         1         2         6         1         3      0.00003191
         5         1         2         6         2         1      0.00447350
         5         1         2         6         2         2      0.00004775
         5         1         2         6         2         3     -0.00421484
         5         1         3         7         1         1      0.01075563
         5         1         3         7         1         2     -0.00554155
         5         1         3         7         1         3      0.00003191
         5         1         3         7         2         1      0.00447350
         5         1         3         7         2         2      0.00004775
         5         1         3         7         2         3     -0.00421484
         5         1         4         8         1         1     -0.00531740
         5         1         5         1         1         1     -0.00036588
         5         1         5         1         1         2      0.00641939
         5         1         5         1         1         3      0.00000000
         5         1         5         1         1         4      0.00234262
         5         1         5         1         2         1     -0.00658344
         5         1         5         1         2         2      0.00125902
         5         1         5         1         2         3     -0.00000000
         5         1         5         1         2         4      0.00077436
         5         1         5         1         3         1      0.00407670
         5         1         5         1         3         2     -0.00748803
         5         1         5         1         3         3     -0.00000000
         5         1         5         1         3         4      0.00058107
         5         1         5         1         4         1      0.00000000
         5         1         5         1         4         2     -0.00000000
         5         1         5         1         4         3     -0.00607437
         5         1         5         1         4         4     -0.00000000
         5         1         5         1         5         1      0.00106103
         5         1         5         1         5         2      0.00140594
         5         1         5         1         5         3     -0.00000000
         5         1         5         1         5         4     -0.00408902
         5         1         6         2         1         1      0.00882655
         5         1         6         2         1         2     -0.00121811
         5         1         6         2         2         1     -0.00543391
         5         1         6         2         2         2      0.00152986
         5         1         6         2         3         1     -0.00088406
         5         1         6         2         3         2     -0.00574934
         5         1         7         3         1         1      0.00882655
         5         1         7         3         1         2     -0.00121811
         5         1         7         3         2         1     -0.00543391
         5         1         7         3         2         2      0.00152986
         5         1         7         3         3         1     -0.00088406
         5         1         7         3         3         2     -0.00574934
         5         1         8         4         1         1     -0.00607437
         5         2         1         5         1         1     -0.01027095
         5         2         1         5         1         2      0.01691042
         5         2         1         5         1         3     -0.00316875
         5         2         1         5         1         4     -0.00000000
         5         2         1         5         1         5      0.00027047
         5         2         1         5         2         1      0.01107265
         5         2         1         5         2         2     -0.00568129
         5         2         1         5         2         3     -0.00056272
         5         2         1         5         2         4      0.00000000
         5         2         1         5         2         5     -0.00036618
         5         2         1         5         3         1     -0.00000000
         5         2         1         5         3         2      0.00000000
         5         2         1         5         3         3      0.00000000
         5         2         1         5         3         4      0.00213503
         5         2         1         5         3         5      0.00000000
         5         2         1         5         4         1     -0.00530033
         5         2         1         5         4         2      0.00167589
         5         2         1         5         4         3     -0.00307675
         5         2         1         5         4         4      0.00000000
         5         2         1         5         4         5      0.00476071
         5         2         2         6         1         1     -0.00594699
         5         2         2         6         1         2      0.00207716
         5         2         2         6         1         3      0.00386103
         5         2         2         6         2         1     -0.01176147
         5         2         2         6         2         2      0.00171733
         5         2         2         6         2         3      0.00494812
         5         2         3         7         1         1     -0.00594699
         5         2         3         7         1         2      0.00207716
         5         2         3         7         1         3      0.00386103
         5         2         3         7         2         1     -0.01176147
         5         2         3         7         2         2      0.00171733
         5         2         3         7         2         3      0.00494812
         5         2         4         8         1         1      0.00213503
         5         2         5         1         1         1      0.00011400
         5         2         5         1         1         2      0.01358636
         5         2         5         1         1         3     -0.00000000
         5         2         5         1         1         4     -0.01448628
         5         2         5         1         2         1      0.01494170
         5         2         5         1         2         2     -0.00178858
         5         2         5         1         2         3      0.00000000
         5         2         5         1         2         4      0.00647703
         5         2         5         1         3         1     -0.00806516
         5         2         5         1         3         2     -0.00358166
         5         2         5         1         3         3      0.00000000
         5         2         5         1         3         4     -0.00276188
         5         2         5         1         4         1     -0.00000000
         5         2         5         1         4         2      0.00000000
         5         2         5         1         4         3      0.00206249
         5         2         5         1         4         4      0.00000000
         5         2         5         1         5         1     -0.00020461
         5         2         5         1         5         2     -0.00086125
         5         2         5         1         5         3      0.00000000
         5         2         5         1         5         4      0.00309003
         5         2         6         2         1         1     -0.00596096
         5         2         6         2         1         2     -0.02133936
         5         2         6         2         2         1      0.00234210
         5         2         6         2         2         2      0.00391767
         5         2         6         2         3         1      0.00224373
         5         2         6         2         3         2      0.00348095
         5         2         7         3         1         1     -0.00596096
         5         2         7         3         1         2     -0.02133936
         5         2         7         3         2         1      0.00234210
         5         2         7         3         2         2      0.00391767
         5         2         7         3         3         1      0.00224373
         5         2         7         3         3         2      0.00348095
         5         2         8         4         1         1      0.00206249
         5         3         1         6         1         1     -0.01428720
         5         3         1         6         1         2      0.01156442
         5         3         1         6         1         3      0.00201634
         5         3         1         6         2         1      0.00611684
         5         3         1         6         2         2     -0.00554014
         5         3         1         6         2         3     -0.00074906
         5         3         1         6         3         1     -0.00961746
         5         3         1         6         3         2      0.00188304
         5         3         1         6         3         3      0.00003485
         5         3         1         6         4         1      0.00861442
         5         3         1         6         4         2     -0.00342107
         5         3         1         6         4         3      0.00263886
         5         3         2         5         1         1      0.00473151
         5         3         2         5         1         2      0.00281882
         5         3         2         5         1         3     -0.00379819
         5         3         2         5         1         4      0.00364868
         5         3         2         5         1         5     -0.00212541
         5         3         2         5         2         1     -0.00525961
         5         3         2         5         2         2      0.00257513
         5         3         2         5         2         3      0.00067499
         5         3         2         5         2         4      0.00269719
         5         3         2         5         2         5     -0.00126871
         5         3         3         8         1         1      0.00364868
         5         3         3         8         2         1      0.00269719
         5         3         4         7         1         1     -0.00961746
         5         3         4         7         1         2      0.00188304
         5         3         4         7         1         3      0.00003485
         5         3         5         2         1         1      0.00540236
         5         3         5         2         1         2     -0.01623191
         5         3         5         2         2         1      0.00976950
         5         3         5         2         2         2      0.00490145
         5         3         5         2         3         1     -0.01043458
         5         3         5         2         3         2      0.00042950
         5         3         5         2         4         1      0.00146888
         5         3         5         2         4         2      0.00047981
         5         3         5         2         5         1     -0.00200746
         5         3         5         2         5         2      0.00017610
         5         3         6         1         1         1     -0.00874326
         5         3         6         1         1         2     -0.00348229
         5         3         6         1         1         3     -0.01958886
         5         3         6         1         1         4      0.01187331
         5         3         6         1         2         1      0.00582118
         5         3         6         1         2         2     -0.00296140
         5         3         6         1         2         3      0.00359922
         5         3         6         1         2         4     -0.00297136
         5         3         6         1         3         1      0.00126483
         5         3         6         1         3         2     -0.00073932
         5         3         6         1         3         3      0.00066418
         5         3         6         1         3         4     -0.00007511
         5         3         7         4         1         1     -0.01958886
         5         3         7         4         2         1      0.00359922
         5         3         7         4         3         1      0.00066418
         5         3         8         3         1         1      0.00146888
         5         3         8         3         1         2      0.00047981
         5         4         1         7         1         1     -0.01428720
         5         4         1         7         1         2      0.01156442
         5         4         1         7         1         3      0.00201634
         5         4         1         7         2         1      0.00611684
         5         4         1         7         2         2     -0.00554014
         5         4         1         7         2         3     -0.00074906
         5         4         1         7         3         1      0.00961746
         5         4         1         7         3         2     -0.00188304
         5         4         1         7         3         3     -0.00003485
         5         4         1         7         4         1      0.00861442
         5         4         1         7         4         2     -0.00342107
         5         4         1         7         4         3      0.00263886
         5         4         2         8         1         1      0.00364868
         5         4         2         8         2         1      0.00269719
         5         4         3         5         1         1      0.00473151
         5         4         3         5         1         2      0.00281882
         5         4         3         5         1         3     -0.00379819
         5         4         3         5         1         4     -0.00364868
         5         4         3         5         1         5     -0.00212541
         5         4         3         5         2         1     -0.00525961
         5         4         3         5         2         2      0.00257513
         5         4         3         5         2         3      0.00067499
         5         4         3         5         2         4     -0.00269719
         5         4         3         5         2         5     -0.00126871
         5         4         4         6         1         1     -0.00961746
         5         4         4         6         1         2      0.00188304
         5         4         4         6         1         3      0.00003485
         5         4         5         3         1         1      0.00540236
         5         4         5         3         1         2     -0.01623191
         5         4         5         3         2         1      0.00976950
         5         4         5         3         2         2      0.00490145
         5         4         5         3         3         1     -0.01043458
         5         4         5         3         3         2      0.00042950
         5         4         5         3         4         1     -0.00146888
         5         4         5         3         4         2     -0.00047981
         5         4         5         3         5         1     -0.00200746
         5         4         5         3         5         2      0.00017610
         5         4         6         4         1         1     -0.01958886
         5         4         6         4         2         1      0.00359922
         5         4         6         4         3         1      0.00066418
         5         4         7         1         1         1     -0.00874326
         5         4         7         1         1         2     -0.00348229
         5         4         7         1         1         3      0.01958886
         5         4         7         1         1         4      0.01187331
         5         4         7         1         2         1      0.00582118
         5         4         7         1         2         2     -0.00296140
         5         4         7         1         2         3     -0.00359922
         5         4         7         1         2         4     -0.00297136
         5         4         7         1         3         1      0.00126483
         5         4         7         1         3         2     -0.00073932
         5         4         7         1         3         3     -0.00066418
         5         4         7         1         3         4     -0.00007511
         5         4         8         2         1         1      0.00146888
         5         4         8         2         1         2      0.00047981


 RESULTS
 =======

  Reference energy                   -108.606225806201
  CISD singlet pair energy             -0.282028772808
  CISD triplet pair energy             -0.095588968473
  CISD correlation energy              -0.379829493884

 !CISD total energy                  -108.986055300085

 Timing summary (sec):

 STEP                 CPU(USER)    SYS     CPU(TOT)    WALL
 Transformation          0.01      0.00      0.01      0.00
 CCSD iterations         0.05      0.01      0.06      0.07

 Program statistics:

 Available memory in ccsd:                39999100
 Min. memory needed in ccsd:                  4777
 Max. memory used in ccsd:                    5237
 Max. memory used in cckext:                 37677 (28 integral passes)



 **********************************************************************************************************************************
 DATASETS  * FILE   NREC   LENGTH (MB)   RECORD NAMES
              1      20       30.07       500      700      610      900      950      970     1000      129      960     1100   
                                          VAR     GEOM    BASINP   SYMINP    ZMAT    AOBASIS   BASIS     P2S    ABASIS      S 
                                         1400     1410     1200     1210     1080     1600     1650     1300     1700     1380   
                                           T        V       H0       H01     AOSYM     SMH    MOLCAS    ERIS     OPER     JKOP   

              3       5       14.77       500      610      700     1000     2100   
                                          VAR    BASINP    GEOM     BASIS     RHF  

 PROGRAMS   *        TOTAL      CISD       INT   RESTART
 CPU TIMES  *         0.42      0.09      0.18      0.02
 REAL TIME  *         0.62 SEC
 DISK USED  *        49.46 MB
 **********************************************************************************************************************************
 Molecular orbitals read from record     2100.3  Type=RHF/CANONICAL (state 1.1)
 Occupation numbers read from record     2100.3  Type=RHF/RHF (state 1.1)
 Orbital energies read from record       2100.3  Type=RHF/CANONICAL (state 1.1)
 Redundancy group numbers read from rec  2100.3  Type=RHF/RHF (state 1.1)

 CISD/cc-pVDZ energy=   -108.986055300085

            CISD
   -108.98605530
 **********************************************************************************************************************************
 Molpro calculation terminated
