
 Primary working directories    : /scr/yuriaoto/job.023676/molpro.pbsqhI6E8U
 Secondary working directories  : /scr/yuriaoto/job.023676/molpro.pbsqhI6E8U
 Wavefunction directory         : /scr/yuriaoto/job.023676/
 Main file repository           : /scr/yuriaoto/job.023676/molpro.pbsqhI6E8U/

 id        : yuriaoto

 Nodes             nprocs
 t-rex.ufabc.int.br    1

 Using customized tuning parameters: mindgm=8; mindgv=16; mindgc=1; mindgr=1; noblas=0; minvec=7
 default implementation of scratch files=df  


 Variables initialized (933), CPU time= 0.00 sec
 ***,
 memory,40,m
 gprint,orbital,basis,civector
 gthresh,thrprint=0,printci=0.0
 file,3,wfu.dat,old
 
 {ccsd,CC_NORM_MAX=10.0
 nosingle
 thresh,printci=0.0,ENERGY=1.0E-10,COEFF=1.0E-12
 print,ref=1
 core,0
 wf,6,1,0;
 }
 
 Commands  initialized (760), CPU time= 0.01 sec, 617 directives.
 Default parameters read. Elapsed time= 0.03 sec

 Checking input...
 Passed
1


                                         ***  PROGRAM SYSTEM MOLPRO  ***
                                       Copyright, TTI GmbH Stuttgart, 2015
                                    Version 2019.2 linked Abr  7 2019 15:10:35


 **********************************************************************************************************************************
 LABEL *                                                                                 
  64 bit serial version                                                                  DATE: 05-Jun-20          TIME: 23:29:03  
 **********************************************************************************************************************************

 SHA1:             3a8a58c585c929645742fb5a1b7541a4ad1da699
 **********************************************************************************************************************************


 THRESHOLDS:

 ZERO    =  1.00D-12  ONEINT  =  1.00D-12  TWOINT  =  1.00D-11  PREFAC  =  1.00D-14  XXXXXX  =  1.00D-09  EORDER  =  1.00D-04
 ENERGY  =  0.00D+00  ETEST   =  0.00D+00  EDENS   =  0.00D+00  THRDEDEF=  1.00D-06  GRADIENT=  1.00D-02  STEP    =  1.00D-03
 ORBITAL =  1.00D-05  CIVEC   =  1.00D-05  COEFF   =  1.00D-04  PRINTCI =  0.00D+00  PUNCHCI =  9.90D+01  OPTGRAD =  3.00D-04
 OPTENERG=  1.00D-06  OPTSTEP =  3.00D-04  THRGRAD =  1.00D-10  COMPRESS=  1.00D-11  VARMIN  =  1.00D-07  VARMAX  =  1.00D-03
 THRDOUB =  0.00D+00  THRDIV  =  1.00D-05  THRRED  =  1.00D-07  THRPSP  =  1.00D+00  THRDC   =  1.00D-10  THRCS   =  1.00D-10
 THRNRM  =  1.00D-08  THREQ   =  0.00D+00  THRDE   =  1.00D+00  THRREF  =  1.00D-05  SPARFAC =  1.00D+00  THRDLP  =  1.00D-07
 THRDIA  =  1.00D-10  THRDLS  =  1.00D-07  THRGPS  =  0.00D+00  THRKEX  =  0.00D+00  THRDIS  =  2.00D-01  THRVAR  =  1.00D-10
 THRLOC  =  1.00D-06  THRGAP  =  1.00D-06  THRLOCT = -1.00D+00  THRGAPT = -1.00D+00  THRORB  =  1.00D-06  THRMLTP =  0.00D+00
 THRCPQCI=  1.00D-10  KEXTA   =  0.00D+00  THRCOARS=  0.00D+00  SYMTOL  =  1.00D-06  GRADTOL =  1.00D-06  THROVL  =  1.00D-08
 THRORTH =  1.00D-08  GRID    =  1.00D-06  GRIDMAX =  1.00D-03  DTMAX   =  0.00D+00  THROCCDE=  1.00D-01  THROCCDE=  1.00D-01
 THRPRINT=  0.00D+00


 Variable memory set to   40000000 words,  buffer space 



 Permanent file  3  wfu.dat  assigned.  Implementation=df    Size= 14.10 MB


 PROGRAM * RESTART 


 Reading variables from file 3

 _FNUC           =      0.00000000
 _BASIS          =    CC-PVDZ
 _NELEC          =      6.00000000
 _PROGRAM        =    RHF-SCF
 _DMX            =     -0.00000000
 _DMY            =     -0.00000000
 _DMZ            =     -0.00000000
 _DMX_SCF        =     -0.00000000
 _DMY_SCF        =     -0.00000000
 _DMZ_SCF        =     -0.00000000
 _HOMO           =      3.10000000
 _EHOMO          =     -0.18089003
 _LUMO           =      4.10000000
 _ELUMO          =      0.00860175
 _ENERGY         =    -14.86923112
 _ENERGY_METHOD  =    RHF
 _ENERGY_BASIS   =    cc-pVDZ
 _ENUC           =      1.80000000
 _EPS1(1:18)     =     -2.44754692    -2.44716908    -0.18089003     0.00860175     0.03216991     0.03216991
                        0.04506451     0.06717723     0.06717723     0.08426832     0.14188695     0.16180289
                        0.16180289     0.17633377     0.21640604     0.21640604     0.25807888     0.31859242
 _IPROC_MPP      =      0.00000000
 _IPROC_MPPX     =      0.00000000
 _ORBITAL        =   2100.30000000
 _STATUS         =      1.00000000
 _DATE           =    27-Mar-20
 _LASTORB        =    RHF
 _OUTPUT         =    /scr/yuriaoto/job.022849/RHF.xml
 _PGROUP         =    C1  
 _TIME           =    17:30:48
 R               =      5.00000000

 Geometry written to block  1 of record 700


 **********************************************************************************************************************************
 DATASETS  * FILE   NREC   LENGTH (MB)   RECORD NAMES
              3       5       14.79       500      610      700     1000     2100   
                                          VAR    BASINP    GEOM     BASIS     RHF  

 PROGRAMS   *        TOTAL   RESTART
 CPU TIMES  *         0.09      0.01
 REAL TIME  *         0.12 SEC
 DISK USED  *        26.85 MB
 **********************************************************************************************************************************


 Recomputing integrals since basis changed


 Using spherical harmonics

 Library entry LI     S cc-pVDZ              selected for orbital group  1
 Library entry LI     P cc-pVDZ              selected for orbital group  1
 Library entry LI     D cc-pVDZ              selected for orbital group  1


 PROGRAM * SEWARD (Integral evaluation for generally contracted gaussian basis sets)     Author: Roland Lindh, 1990

 Geometry written to block  1 of record 700

 Orientation using atomic masses  
 Molecule type: Linear
 Rotational constants:      20.8009354     20.8009354      0.0000000 GHz  (calculated with average atomic masses)

 Point group  C1  



 ATOMIC COORDINATES

 NR  ATOM    CHARGE       X              Y              Z

   1  LI1     3.00    0.000000000    0.000000000   -2.500000000
   2  LI2     3.00    0.000000000    0.000000000    2.500000000

 Bond lengths in Bohr (Angstrom)

 1-2  5.000000000
     ( 2.645886055)


 BASIS DATA

   Nr Sym  Nuc  Type         Exponents   Contraction coefficients

    1.1 A     1  1s        1469.000000     0.000766   -0.000120    0.000000
    2.1 A                   220.500000     0.005892   -0.000923    0.000000
    3.1 A                    50.260000     0.029671   -0.004689    0.000000
                             14.240000     0.109180   -0.017682    0.000000
                              4.581000     0.282789   -0.048902    0.000000
                              1.580000     0.453123   -0.096009    0.000000
                              0.564000     0.274774   -0.136380    0.000000
                              0.073450     0.009751    0.575102    0.000000
                              0.028050    -0.003180    0.517661    1.000000
    4.1 A     1  2px          1.534000     0.022784
                              0.274900     0.139107
                              0.073620     0.500375
                              0.024030     0.508474
    5.1 A     1  2py          1.534000     0.022784
                              0.274900     0.139107
                              0.073620     0.500375
                              0.024030     0.508474
    6.1 A     1  2pz          1.534000     0.022784
                              0.274900     0.139107
                              0.073620     0.500375
                              0.024030     0.508474
    7.1 A     1  2px          1.534000     0.000000
                              0.274900     0.000000
                              0.073620     0.000000
                              0.024030     1.000000
    8.1 A     1  2py          1.534000     0.000000
                              0.274900     0.000000
                              0.073620     0.000000
                              0.024030     1.000000
    9.1 A     1  2pz          1.534000     0.000000
                              0.274900     0.000000
                              0.073620     0.000000
                              0.024030     1.000000
   10.1 A     1  3d0          0.114400     1.000000
   11.1 A     1  3d2-         0.114400     1.000000
   12.1 A     1  3d1+         0.114400     1.000000
   13.1 A     1  3d2+         0.114400     1.000000
   14.1 A     1  3d1-         0.114400     1.000000
   15.1 A     2  1s        1469.000000     0.000766   -0.000120    0.000000
   16.1 A                   220.500000     0.005892   -0.000923    0.000000
   17.1 A                    50.260000     0.029671   -0.004689    0.000000
                             14.240000     0.109180   -0.017682    0.000000
                              4.581000     0.282789   -0.048902    0.000000
                              1.580000     0.453123   -0.096009    0.000000
                              0.564000     0.274774   -0.136380    0.000000
                              0.073450     0.009751    0.575102    0.000000
                              0.028050    -0.003180    0.517661    1.000000
   18.1 A     2  2px          1.534000     0.022784
                              0.274900     0.139107
                              0.073620     0.500375
                              0.024030     0.508474
   19.1 A     2  2py          1.534000     0.022784
                              0.274900     0.139107
                              0.073620     0.500375
                              0.024030     0.508474
   20.1 A     2  2pz          1.534000     0.022784
                              0.274900     0.139107
                              0.073620     0.500375
                              0.024030     0.508474
   21.1 A     2  2px          1.534000     0.000000
                              0.274900     0.000000
                              0.073620     0.000000
                              0.024030     1.000000
   22.1 A     2  2py          1.534000     0.000000
                              0.274900     0.000000
                              0.073620     0.000000
                              0.024030     1.000000
   23.1 A     2  2pz          1.534000     0.000000
                              0.274900     0.000000
                              0.073620     0.000000
                              0.024030     1.000000
   24.1 A     2  3d0          0.114400     1.000000
   25.1 A     2  3d2-         0.114400     1.000000
   26.1 A     2  3d1+         0.114400     1.000000
   27.1 A     2  3d2+         0.114400     1.000000
   28.1 A     2  3d1-         0.114400     1.000000

 NUCLEAR CHARGE:                    6
 NUMBER OF PRIMITIVE AOS:          54
 NUMBER OF SYMMETRY AOS:           52
 NUMBER OF CONTRACTIONS:           28   (   28A   )
 NUMBER OF CORE ORBITALS:           2   (    2A   )
 NUMBER OF VALENCE ORBITALS:        8   (    8A   )


 NUCLEAR REPULSION ENERGY    1.80000000

 EXTRA SYMMETRY OF AOS IN SYMMETRY 1:   1 1 1 2 3 1 2 3 1 1   4 2 5 3 1 1 1 2 3 1   2 3 1 1 4 2 5 3

 Eigenvalues of metric

         1 0.256E-02 0.901E-02 0.313E-01 0.586E-01 0.586E-01 0.995E-01 0.101E+00 0.135E+00


 Contracted 2-electron integrals neglected if value below      1.0D-11
 AO integral compression algorithm  1   Integral accuracy      1.0D-11

     0.262 MB (compressed) written to integral file ( 36.0%)


 NUMBER OF SORTED TWO-ELECTRON INTEGRALS:      82621.     BUFFER LENGTH:  32768
 NUMBER OF SEGMENTS:   1  SEGMENT LENGTH:      82621      RECORD LENGTH: 524288

 Memory used in sort:       0.64 MW

 SORT1 READ      119167. AND WROTE       19125. INTEGRALS IN      1 RECORDS. CPU TIME:     0.00 SEC, REAL TIME:     0.00 SEC
 SORT2 READ       19125. AND WROTE       82621. INTEGRALS IN      1 RECORDS. CPU TIME:     0.01 SEC, REAL TIME:     0.01 SEC

 FILE SIZES:   FILE 1:    30.2 MBYTE,  FILE 4:     4.2 MBYTE,   TOTAL:     34.5 MBYTE

 OPERATOR DM      FOR CENTER  0  COORDINATES:    0.000000    0.000000    0.000000


 **********************************************************************************************************************************
 DATASETS  * FILE   NREC   LENGTH (MB)   RECORD NAMES
              1      19       30.10       500      700      610      900      950      970     1000      129      960     1100   
                                          VAR     GEOM    BASINP   SYMINP    ZMAT    AOBASIS   BASIS     P2S    ABASIS      S 
                                         1400     1410     1200     1210     1080     1600     1650     1300     1700   
                                           T        V       H0       H01     AOSYM     SMH    MOLCAS    ERIS     OPER   

              3       5       14.79       500      610      700     1000     2100   
                                          VAR    BASINP    GEOM     BASIS     RHF  

 PROGRAMS   *        TOTAL       INT   RESTART
 CPU TIMES  *         0.22      0.13      0.01
 REAL TIME  *         0.34 SEC
 DISK USED  *        49.48 MB
 **********************************************************************************************************************************


 PROGRAM * CCSD (Closed-shell coupled cluster)     Authors: C. Hampel, H.-J. Werner, 1991, M. Deegan, P.J. Knowles, 1992


 Input parameters for THRESH:

 ENERGY   =    1.00D-10
 COEFF    =    1.00D-12
 PRINTCI  =    0.000000
 THRPRINT =    0.000000

 Convergence thresholds:  THRVAR = 1.00D-24  THRDEN = 1.00D-10

 Number of closed-shell orbitals:   3 (   3 )
 Number of external orbitals:      25 (  25 )

 Molecular orbitals read from record     2100.3  Type=RHF/CANONICAL (state 1.1)

 Number of N-1 electron functions:               0
 Number of N-2 electron functions:               6
 Number of singly external CSFs:                 0
 Number of doubly external CSFs:              2850
 Total number of CSFs:                        2851

 Length of J-op  integral file:               0.00 MB
 Length of K-op  integral file:               0.09 MB
 Length of 3-ext integral record:             0.00 MB

 Integral transformation finished. Total CPU:   0.00 sec, npass=  1  Memory used:   0.13 MW

 Reference energy:                    -14.86923112

 MP2 singlet pair energy:              -0.01997317
 MP2 triplet pair energy:              -0.00016887
 MP2 correlation energy:               -0.02014205
 MP2 total energy:                    -14.88937317

 SCS-MP2 correlation energy:           -0.02407288   (PS=  1.200000  PT=  0.333333)
 SCS-MP2 total energy:                -14.89330400

 ITER.      SQ.NORM     CORR.ENERGY   TOTAL ENERGY   ENERGY CHANGE        DEN1      VAR(S)    VAR(P)  DIIS     TIME  TIME/IT
   1      1.05138328    -0.02838780   -14.89761892    -0.00824576    -0.00442435  0.00D+00  0.28D-02  1  1     0.01     0.00
   2      1.08663228    -0.03176935   -14.90100047    -0.00338154    -0.00568234  0.00D+00  0.30D-03  2  2     0.01     0.00
   3      1.09817161    -0.03183841   -14.90106953    -0.00006906    -0.00117452  0.00D+00  0.53D-04  3  3     0.02     0.00
   4      1.10330639    -0.03189737   -14.90112849    -0.00005897    -0.00037104  0.00D+00  0.91D-05  4  4     0.02     0.00
   5      1.10509933    -0.03194866   -14.90117978    -0.00005129    -0.00013014  0.00D+00  0.11D-05  5  5     0.02     0.00
   6      1.10520772    -0.03192202   -14.90115315     0.00002664     0.00000269  0.00D+00  0.18D-06  6  6     0.03     0.00
   7      1.10528474    -0.03192507   -14.90115619    -0.00000305    -0.00000472  0.00D+00  0.25D-07  6  1     0.03     0.00
   8      1.10528492    -0.03192520   -14.90115632    -0.00000013     0.00000082  0.00D+00  0.46D-08  6  2     0.03     0.00
   9      1.10528994    -0.03192511   -14.90115623     0.00000009    -0.00000057  0.00D+00  0.45D-09  6  3     0.04     0.00
  10      1.10528547    -0.03192518   -14.90115630    -0.00000007     0.00000049  0.00D+00  0.51D-10  6  4     0.04     0.00
  11      1.10528353    -0.03192522   -14.90115634    -0.00000004     0.00000024  0.00D+00  0.10D-10  6  5     0.04     0.00
  12      1.10528223    -0.03192524   -14.90115637    -0.00000003     0.00000014  0.00D+00  0.26D-11  6  6     0.04     0.00
  13      1.10528160    -0.03192525   -14.90115637    -0.00000001     0.00000005  0.00D+00  0.55D-12  6  1     0.05     0.00
  14      1.10528139    -0.03192525   -14.90115637    -0.00000000     0.00000001  0.00D+00  0.13D-12  6  2     0.05     0.00
  15      1.10528130    -0.03192525   -14.90115637     0.00000000     0.00000000  0.00D+00  0.28D-13  6  3     0.05     0.00
  16      1.10528126    -0.03192525   -14.90115637    -0.00000000     0.00000000  0.00D+00  0.60D-14  6  4     0.05     0.00
  17      1.10528124    -0.03192525   -14.90115637    -0.00000000     0.00000000  0.00D+00  0.13D-14  6  5     0.06     0.00
  18      1.10528123    -0.03192525   -14.90115637    -0.00000000     0.00000000  0.00D+00  0.20D-15  6  6     0.06     0.00
  19      1.10528123    -0.03192525   -14.90115637     0.00000000    -0.00000000  0.00D+00  0.49D-16  6  1     0.06     0.00
  20      1.10528123    -0.03192525   -14.90115637     0.00000000    -0.00000000  0.00D+00  0.54D-17  6  3     0.07     0.00
  21      1.10528123    -0.03192525   -14.90115637     0.00000000    -0.00000000  0.00D+00  0.94D-18  6  2     0.07     0.00
  22      1.10528123    -0.03192525   -14.90115637    -0.00000000    -0.00000000  0.00D+00  0.36D-18  6  4     0.07     0.00
  23      1.10528123    -0.03192525   -14.90115637    -0.00000000     0.00000000  0.00D+00  0.34D-19  6  6     0.07     0.00
  24      1.10528123    -0.03192525   -14.90115637    -0.00000000     0.00000000  0.00D+00  0.50D-20  6  5     0.08     0.00
  25      1.10528123    -0.03192525   -14.90115637    -0.00000000     0.00000000  0.00D+00  0.82D-21  6  3     0.08     0.00
  26      1.10528123    -0.03192525   -14.90115637    -0.00000000     0.00000000  0.00D+00  0.16D-21  6  6     0.08     0.00
  27      1.10528123    -0.03192525   -14.90115637    -0.00000000     0.00000000  0.00D+00  0.14D-22  6  1     0.09     0.00
  28      1.10528123    -0.03192525   -14.90115637    -0.00000000     0.00000000  0.00D+00  0.27D-23  6  2     0.09     0.00
  29      1.10528123    -0.03192525   -14.90115637     0.00000000     0.00000000  0.00D+00  0.58D-24  6  4     0.09     0.00


 Doubles amplitudes (print threshold =  0.000E+00):

         I         J         SYM. A    SYM. B    A         B      T(IJ, AB)

         1         1         1         1         1         1     -0.00029089
         1         1         1         1         1         2      0.00000000
         1         1         1         1         1         3     -0.00000000
         1         1         1         1         1         4     -0.00000000
         1         1         1         1         1         5     -0.00000000
         1         1         1         1         1         6     -0.00000000
         1         1         1         1         1         7      0.00048232
         1         1         1         1         1         8      0.00000000
         1         1         1         1         1         9     -0.00000000
         1         1         1         1         1        10      0.00000000
         1         1         1         1         1        11      0.00000000
         1         1         1         1         1        12      0.00000000
         1         1         1         1         1        13     -0.00000000
         1         1         1         1         1        14     -0.00021405
         1         1         1         1         1        15     -0.00035137
         1         1         1         1         1        16     -0.00000000
         1         1         1         1         1        17     -0.00000000
         1         1         1         1         1        18      0.00000000
         1         1         1         1         1        19      0.00000000
         1         1         1         1         1        20      0.00000000
         1         1         1         1         1        21     -0.00000000
         1         1         1         1         1        22     -0.00000000
         1         1         1         1         1        23     -0.00000000
         1         1         1         1         1        24     -0.00000000
         1         1         1         1         1        25     -0.00047505
         1         1         1         1         2         1      0.00000000
         1         1         1         1         2         2      0.00011311
         1         1         1         1         2         3     -0.00000000
         1         1         1         1         2         4      0.00000000
         1         1         1         1         2         5      0.00000000
         1         1         1         1         2         6      0.00000000
         1         1         1         1         2         7      0.00000000
         1         1         1         1         2         8      0.00000000
         1         1         1         1         2         9     -0.00001041
         1         1         1         1         2        10     -0.00009420
         1         1         1         1         2        11     -0.00000000
         1         1         1         1         2        12     -0.00000000
         1         1         1         1         2        13      0.00000000
         1         1         1         1         2        14     -0.00000000
         1         1         1         1         2        15     -0.00000000
         1         1         1         1         2        16      0.00000000
         1         1         1         1         2        17     -0.00000000
         1         1         1         1         2        18      0.00006776
         1         1         1         1         2        19      0.00003971
         1         1         1         1         2        20      0.00000000
         1         1         1         1         2        21      0.00000000
         1         1         1         1         2        22     -0.00000000
         1         1         1         1         2        23      0.00000000
         1         1         1         1         2        24     -0.00000000
         1         1         1         1         2        25      0.00000000
         1         1         1         1         3         1     -0.00000000
         1         1         1         1         3         2     -0.00000000
         1         1         1         1         3         3      0.00011311
         1         1         1         1         3         4     -0.00000000
         1         1         1         1         3         5      0.00000000
         1         1         1         1         3         6     -0.00000000
         1         1         1         1         3         7     -0.00000000
         1         1         1         1         3         8     -0.00000000
         1         1         1         1         3         9     -0.00009420
         1         1         1         1         3        10      0.00001041
         1         1         1         1         3        11      0.00000000
         1         1         1         1         3        12      0.00000000
         1         1         1         1         3        13      0.00000000
         1         1         1         1         3        14      0.00000000
         1         1         1         1         3        15     -0.00000000
         1         1         1         1         3        16     -0.00000000
         1         1         1         1         3        17     -0.00000000
         1         1         1         1         3        18     -0.00003971
         1         1         1         1         3        19      0.00006776
         1         1         1         1         3        20     -0.00000000
         1         1         1         1         3        21     -0.00000000
         1         1         1         1         3        22      0.00000000
         1         1         1         1         3        23      0.00000000
         1         1         1         1         3        24      0.00000000
         1         1         1         1         3        25      0.00000000
         1         1         1         1         4         1     -0.00000000
         1         1         1         1         4         2      0.00000000
         1         1         1         1         4         3     -0.00000000
         1         1         1         1         4         4     -0.00002995
         1         1         1         1         4         5      0.00000000
         1         1         1         1         4         6     -0.00000000
         1         1         1         1         4         7      0.00000000
         1         1         1         1         4         8      0.00014475
         1         1         1         1         4         9     -0.00000000
         1         1         1         1         4        10      0.00000000
         1         1         1         1         4        11     -0.00007342
         1         1         1         1         4        12     -0.00000000
         1         1         1         1         4        13      0.00000000
         1         1         1         1         4        14      0.00000000
         1         1         1         1         4        15     -0.00000000
         1         1         1         1         4        16     -0.00000000
         1         1         1         1         4        17     -0.00000000
         1         1         1         1         4        18      0.00000000
         1         1         1         1         4        19     -0.00000000
         1         1         1         1         4        20     -0.00000000
         1         1         1         1         4        21     -0.00000000
         1         1         1         1         4        22     -0.00011910
         1         1         1         1         4        23     -0.00000000
         1         1         1         1         4        24     -0.00000000
         1         1         1         1         4        25      0.00000000
         1         1         1         1         5         1     -0.00000000
         1         1         1         1         5         2      0.00000000
         1         1         1         1         5         3      0.00000000
         1         1         1         1         5         4      0.00000000
         1         1         1         1         5         5     -0.00000723
         1         1         1         1         5         6      0.00000000
         1         1         1         1         5         7     -0.00000000
         1         1         1         1         5         8      0.00000000
         1         1         1         1         5         9      0.00000000
         1         1         1         1         5        10      0.00000000
         1         1         1         1         5        11      0.00000000
         1         1         1         1         5        12      0.00006791
         1         1         1         1         5        13     -0.00006035
         1         1         1         1         5        14     -0.00000000
         1         1         1         1         5        15     -0.00000000
         1         1         1         1         5        16      0.00000000
         1         1         1         1         5        17     -0.00000000
         1         1         1         1         5        18     -0.00000000
         1         1         1         1         5        19     -0.00000000
         1         1         1         1         5        20      0.00000000
         1         1         1         1         5        21     -0.00000000
         1         1         1         1         5        22      0.00000000
         1         1         1         1         5        23     -0.00005511
         1         1         1         1         5        24      0.00000924
         1         1         1         1         5        25     -0.00000000
         1         1         1         1         6         1     -0.00000000
         1         1         1         1         6         2      0.00000000
         1         1         1         1         6         3     -0.00000000
         1         1         1         1         6         4     -0.00000000
         1         1         1         1         6         5      0.00000000
         1         1         1         1         6         6     -0.00000723
         1         1         1         1         6         7     -0.00000000
         1         1         1         1         6         8     -0.00000000
         1         1         1         1         6         9     -0.00000000
         1         1         1         1         6        10      0.00000000
         1         1         1         1         6        11      0.00000000
         1         1         1         1         6        12      0.00006035
         1         1         1         1         6        13      0.00006791
         1         1         1         1         6        14      0.00000000
         1         1         1         1         6        15      0.00000000
         1         1         1         1         6        16     -0.00000000
         1         1         1         1         6        17     -0.00000000
         1         1         1         1         6        18     -0.00000000
         1         1         1         1         6        19      0.00000000
         1         1         1         1         6        20     -0.00000000
         1         1         1         1         6        21      0.00000000
         1         1         1         1         6        22      0.00000000
         1         1         1         1         6        23      0.00000924
         1         1         1         1         6        24      0.00005511
         1         1         1         1         6        25      0.00000000
         1         1         1         1         7         1      0.00048232
         1         1         1         1         7         2      0.00000000
         1         1         1         1         7         3     -0.00000000
         1         1         1         1         7         4      0.00000000
         1         1         1         1         7         5     -0.00000000
         1         1         1         1         7         6     -0.00000000
         1         1         1         1         7         7     -0.00073104
         1         1         1         1         7         8     -0.00000000
         1         1         1         1         7         9     -0.00000000
         1         1         1         1         7        10      0.00000000
         1         1         1         1         7        11     -0.00000000
         1         1         1         1         7        12      0.00000000
         1         1         1         1         7        13      0.00000000
         1         1         1         1         7        14      0.00021823
         1         1         1         1         7        15      0.00053549
         1         1         1         1         7        16      0.00000000
         1         1         1         1         7        17      0.00000000
         1         1         1         1         7        18      0.00000000
         1         1         1         1         7        19     -0.00000000
         1         1         1         1         7        20     -0.00000000
         1         1         1         1         7        21     -0.00000000
         1         1         1         1         7        22      0.00000000
         1         1         1         1         7        23      0.00000000
         1         1         1         1         7        24      0.00000000
         1         1         1         1         7        25      0.00053739
         1         1         1         1         8         1      0.00000000
         1         1         1         1         8         2      0.00000000
         1         1         1         1         8         3     -0.00000000
         1         1         1         1         8         4      0.00014475
         1         1         1         1         8         5      0.00000000
         1         1         1         1         8         6     -0.00000000
         1         1         1         1         8         7     -0.00000000
         1         1         1         1         8         8     -0.00040017
         1         1         1         1         8         9     -0.00000000
         1         1         1         1         8        10      0.00000000
         1         1         1         1         8        11      0.00024118
         1         1         1         1         8        12      0.00000000
         1         1         1         1         8        13      0.00000000
         1         1         1         1         8        14     -0.00000000
         1         1         1         1         8        15      0.00000000
         1         1         1         1         8        16      0.00000000
         1         1         1         1         8        17     -0.00000000
         1         1         1         1         8        18      0.00000000
         1         1         1         1         8        19     -0.00000000
         1         1         1         1         8        20      0.00000000
         1         1         1         1         8        21      0.00000000
         1         1         1         1         8        22      0.00023584
         1         1         1         1         8        23     -0.00000000
         1         1         1         1         8        24     -0.00000000
         1         1         1         1         8        25     -0.00000000
         1         1         1         1         9         1     -0.00000000
         1         1         1         1         9         2     -0.00001041
         1         1         1         1         9         3     -0.00009420
         1         1         1         1         9         4     -0.00000000
         1         1         1         1         9         5      0.00000000
         1         1         1         1         9         6     -0.00000000
         1         1         1         1         9         7     -0.00000000
         1         1         1         1         9         8     -0.00000000
         1         1         1         1         9         9     -0.00061829
         1         1         1         1         9        10      0.00000000
         1         1         1         1         9        11      0.00000000
         1         1         1         1         9        12      0.00000000
         1         1         1         1         9        13      0.00000000
         1         1         1         1         9        14     -0.00000000
         1         1         1         1         9        15     -0.00000000
         1         1         1         1         9        16     -0.00000000
         1         1         1         1         9        17     -0.00000000
         1         1         1         1         9        18     -0.00006281
         1         1         1         1         9        19      0.00014062
         1         1         1         1         9        20     -0.00000000
         1         1         1         1         9        21     -0.00000000
         1         1         1         1         9        22      0.00000000
         1         1         1         1         9        23      0.00000000
         1         1         1         1         9        24      0.00000000
         1         1         1         1         9        25      0.00000000
         1         1         1         1        10         1      0.00000000
         1         1         1         1        10         2     -0.00009420
         1         1         1         1        10         3      0.00001041
         1         1         1         1        10         4      0.00000000
         1         1         1         1        10         5      0.00000000
         1         1         1         1        10         6      0.00000000
         1         1         1         1        10         7      0.00000000
         1         1         1         1        10         8      0.00000000
         1         1         1         1        10         9      0.00000000
         1         1         1         1        10        10     -0.00061829
         1         1         1         1        10        11      0.00000000
         1         1         1         1        10        12     -0.00000000
         1         1         1         1        10        13      0.00000000
         1         1         1         1        10        14      0.00000000
         1         1         1         1        10        15     -0.00000000
         1         1         1         1        10        16      0.00000000
         1         1         1         1        10        17     -0.00000000
         1         1         1         1        10        18      0.00014062
         1         1         1         1        10        19      0.00006281
         1         1         1         1        10        20      0.00000000
         1         1         1         1        10        21      0.00000000
         1         1         1         1        10        22      0.00000000
         1         1         1         1        10        23      0.00000000
         1         1         1         1        10        24     -0.00000000
         1         1         1         1        10        25      0.00000000
         1         1         1         1        11         1      0.00000000
         1         1         1         1        11         2     -0.00000000
         1         1         1         1        11         3      0.00000000
         1         1         1         1        11         4     -0.00007342
         1         1         1         1        11         5      0.00000000
         1         1         1         1        11         6      0.00000000
         1         1         1         1        11         7     -0.00000000
         1         1         1         1        11         8      0.00024118
         1         1         1         1        11         9      0.00000000
         1         1         1         1        11        10      0.00000000
         1         1         1         1        11        11     -0.00070661
         1         1         1         1        11        12     -0.00000000
         1         1         1         1        11        13     -0.00000000
         1         1         1         1        11        14      0.00000000
         1         1         1         1        11        15      0.00000000
         1         1         1         1        11        16      0.00000000
         1         1         1         1        11        17      0.00000000
         1         1         1         1        11        18     -0.00000000
         1         1         1         1        11        19      0.00000000
         1         1         1         1        11        20     -0.00000000
         1         1         1         1        11        21      0.00000000
         1         1         1         1        11        22      0.00009155
         1         1         1         1        11        23      0.00000000
         1         1         1         1        11        24      0.00000000
         1         1         1         1        11        25      0.00000000
         1         1         1         1        12         1      0.00000000
         1         1         1         1        12         2     -0.00000000
         1         1         1         1        12         3      0.00000000
         1         1         1         1        12         4     -0.00000000
         1         1         1         1        12         5      0.00006791
         1         1         1         1        12         6      0.00006035
         1         1         1         1        12         7      0.00000000
         1         1         1         1        12         8      0.00000000
         1         1         1         1        12         9      0.00000000
         1         1         1         1        12        10     -0.00000000
         1         1         1         1        12        11     -0.00000000
         1         1         1         1        12        12     -0.00078343
         1         1         1         1        12        13     -0.00000000
         1         1         1         1        12        14      0.00000000
         1         1         1         1        12        15     -0.00000000
         1         1         1         1        12        16      0.00000000
         1         1         1         1        12        17      0.00000000
         1         1         1         1        12        18      0.00000000
         1         1         1         1        12        19     -0.00000000
         1         1         1         1        12        20     -0.00000000
         1         1         1         1        12        21      0.00000000
         1         1         1         1        12        22     -0.00000000
         1         1         1         1        12        23      0.00030869
         1         1         1         1        12        24     -0.00038320
         1         1         1         1        12        25     -0.00000000
         1         1         1         1        13         1     -0.00000000
         1         1         1         1        13         2      0.00000000
         1         1         1         1        13         3      0.00000000
         1         1         1         1        13         4      0.00000000
         1         1         1         1        13         5     -0.00006035
         1         1         1         1        13         6      0.00006791
         1         1         1         1        13         7      0.00000000
         1         1         1         1        13         8      0.00000000
         1         1         1         1        13         9      0.00000000
         1         1         1         1        13        10      0.00000000
         1         1         1         1        13        11     -0.00000000
         1         1         1         1        13        12     -0.00000000
         1         1         1         1        13        13     -0.00078343
         1         1         1         1        13        14      0.00000000
         1         1         1         1        13        15     -0.00000000
         1         1         1         1        13        16      0.00000000
         1         1         1         1        13        17     -0.00000000
         1         1         1         1        13        18     -0.00000000
         1         1         1         1        13        19     -0.00000000
         1         1         1         1        13        20      0.00000000
         1         1         1         1        13        21     -0.00000000
         1         1         1         1        13        22      0.00000000
         1         1         1         1        13        23     -0.00038320
         1         1         1         1        13        24     -0.00030869
         1         1         1         1        13        25      0.00000000
         1         1         1         1        14         1     -0.00021405
         1         1         1         1        14         2     -0.00000000
         1         1         1         1        14         3      0.00000000
         1         1         1         1        14         4      0.00000000
         1         1         1         1        14         5     -0.00000000
         1         1         1         1        14         6      0.00000000
         1         1         1         1        14         7      0.00021823
         1         1         1         1        14         8     -0.00000000
         1         1         1         1        14         9     -0.00000000
         1         1         1         1        14        10      0.00000000
         1         1         1         1        14        11      0.00000000
         1         1         1         1        14        12      0.00000000
         1         1         1         1        14        13      0.00000000
         1         1         1         1        14        14     -0.00064581
         1         1         1         1        14        15     -0.00003441
         1         1         1         1        14        16     -0.00000000
         1         1         1         1        14        17      0.00000000
         1         1         1         1        14        18      0.00000000
         1         1         1         1        14        19     -0.00000000
         1         1         1         1        14        20      0.00000000
         1         1         1         1        14        21     -0.00000000
         1         1         1         1        14        22      0.00000000
         1         1         1         1        14        23     -0.00000000
         1         1         1         1        14        24      0.00000000
         1         1         1         1        14        25     -0.00117482
         1         1         1         1        15         1     -0.00035137
         1         1         1         1        15         2     -0.00000000
         1         1         1         1        15         3     -0.00000000
         1         1         1         1        15         4     -0.00000000
         1         1         1         1        15         5     -0.00000000
         1         1         1         1        15         6      0.00000000
         1         1         1         1        15         7      0.00053549
         1         1         1         1        15         8      0.00000000
         1         1         1         1        15         9     -0.00000000
         1         1         1         1        15        10     -0.00000000
         1         1         1         1        15        11      0.00000000
         1         1         1         1        15        12     -0.00000000
         1         1         1         1        15        13     -0.00000000
         1         1         1         1        15        14     -0.00003441
         1         1         1         1        15        15     -0.00045720
         1         1         1         1        15        16      0.00000000
         1         1         1         1        15        17      0.00000000
         1         1         1         1        15        18     -0.00000000
         1         1         1         1        15        19      0.00000000
         1         1         1         1        15        20      0.00000000
         1         1         1         1        15        21     -0.00000000
         1         1         1         1        15        22     -0.00000000
         1         1         1         1        15        23     -0.00000000
         1         1         1         1        15        24     -0.00000000
         1         1         1         1        15        25     -0.00003036
         1         1         1         1        16         1     -0.00000000
         1         1         1         1        16         2      0.00000000
         1         1         1         1        16         3     -0.00000000
         1         1         1         1        16         4     -0.00000000
         1         1         1         1        16         5      0.00000000
         1         1         1         1        16         6     -0.00000000
         1         1         1         1        16         7      0.00000000
         1         1         1         1        16         8      0.00000000
         1         1         1         1        16         9     -0.00000000
         1         1         1         1        16        10      0.00000000
         1         1         1         1        16        11      0.00000000
         1         1         1         1        16        12      0.00000000
         1         1         1         1        16        13      0.00000000
         1         1         1         1        16        14     -0.00000000
         1         1         1         1        16        15      0.00000000
         1         1         1         1        16        16     -0.00000166
         1         1         1         1        16        17      0.00000000
         1         1         1         1        16        18      0.00000000
         1         1         1         1        16        19     -0.00000000
         1         1         1         1        16        20     -0.00000000
         1         1         1         1        16        21     -0.00000000
         1         1         1         1        16        22     -0.00000000
         1         1         1         1        16        23      0.00000000
         1         1         1         1        16        24      0.00000000
         1         1         1         1        16        25     -0.00000000
         1         1         1         1        17         1     -0.00000000
         1         1         1         1        17         2     -0.00000000
         1         1         1         1        17         3     -0.00000000
         1         1         1         1        17         4     -0.00000000
         1         1         1         1        17         5     -0.00000000
         1         1         1         1        17         6     -0.00000000
         1         1         1         1        17         7      0.00000000
         1         1         1         1        17         8     -0.00000000
         1         1         1         1        17         9     -0.00000000
         1         1         1         1        17        10     -0.00000000
         1         1         1         1        17        11      0.00000000
         1         1         1         1        17        12      0.00000000
         1         1         1         1        17        13     -0.00000000
         1         1         1         1        17        14      0.00000000
         1         1         1         1        17        15      0.00000000
         1         1         1         1        17        16      0.00000000
         1         1         1         1        17        17     -0.00000166
         1         1         1         1        17        18      0.00000000
         1         1         1         1        17        19     -0.00000000
         1         1         1         1        17        20      0.00000000
         1         1         1         1        17        21     -0.00000000
         1         1         1         1        17        22     -0.00000000
         1         1         1         1        17        23     -0.00000000
         1         1         1         1        17        24     -0.00000000
         1         1         1         1        17        25     -0.00000000
         1         1         1         1        18         1      0.00000000
         1         1         1         1        18         2      0.00006776
         1         1         1         1        18         3     -0.00003971
         1         1         1         1        18         4      0.00000000
         1         1         1         1        18         5     -0.00000000
         1         1         1         1        18         6     -0.00000000
         1         1         1         1        18         7      0.00000000
         1         1         1         1        18         8      0.00000000
         1         1         1         1        18         9     -0.00006281
         1         1         1         1        18        10      0.00014062
         1         1         1         1        18        11     -0.00000000
         1         1         1         1        18        12      0.00000000
         1         1         1         1        18        13     -0.00000000
         1         1         1         1        18        14      0.00000000
         1         1         1         1        18        15     -0.00000000
         1         1         1         1        18        16      0.00000000
         1         1         1         1        18        17      0.00000000
         1         1         1         1        18        18     -0.00002523
         1         1         1         1        18        19      0.00000000
         1         1         1         1        18        20      0.00000000
         1         1         1         1        18        21      0.00000000
         1         1         1         1        18        22      0.00000000
         1         1         1         1        18        23     -0.00000000
         1         1         1         1        18        24      0.00000000
         1         1         1         1        18        25      0.00000000
         1         1         1         1        19         1      0.00000000
         1         1         1         1        19         2      0.00003971
         1         1         1         1        19         3      0.00006776
         1         1         1         1        19         4     -0.00000000
         1         1         1         1        19         5     -0.00000000
         1         1         1         1        19         6      0.00000000
         1         1         1         1        19         7     -0.00000000
         1         1         1         1        19         8     -0.00000000
         1         1         1         1        19         9      0.00014062
         1         1         1         1        19        10      0.00006281
         1         1         1         1        19        11      0.00000000
         1         1         1         1        19        12     -0.00000000
         1         1         1         1        19        13     -0.00000000
         1         1         1         1        19        14     -0.00000000
         1         1         1         1        19        15      0.00000000
         1         1         1         1        19        16     -0.00000000
         1         1         1         1        19        17     -0.00000000
         1         1         1         1        19        18      0.00000000
         1         1         1         1        19        19     -0.00002523
         1         1         1         1        19        20     -0.00000000
         1         1         1         1        19        21      0.00000000
         1         1         1         1        19        22      0.00000000
         1         1         1         1        19        23     -0.00000000
         1         1         1         1        19        24     -0.00000000
         1         1         1         1        19        25     -0.00000000
         1         1         1         1        20         1      0.00000000
         1         1         1         1        20         2      0.00000000
         1         1         1         1        20         3     -0.00000000
         1         1         1         1        20         4     -0.00000000
         1         1         1         1        20         5      0.00000000
         1         1         1         1        20         6     -0.00000000
         1         1         1         1        20         7     -0.00000000
         1         1         1         1        20         8      0.00000000
         1         1         1         1        20         9     -0.00000000
         1         1         1         1        20        10      0.00000000
         1         1         1         1        20        11     -0.00000000
         1         1         1         1        20        12     -0.00000000
         1         1         1         1        20        13      0.00000000
         1         1         1         1        20        14      0.00000000
         1         1         1         1        20        15      0.00000000
         1         1         1         1        20        16     -0.00000000
         1         1         1         1        20        17      0.00000000
         1         1         1         1        20        18      0.00000000
         1         1         1         1        20        19     -0.00000000
         1         1         1         1        20        20     -0.00000572
         1         1         1         1        20        21     -0.00000000
         1         1         1         1        20        22     -0.00000000
         1         1         1         1        20        23      0.00000000
         1         1         1         1        20        24      0.00000000
         1         1         1         1        20        25      0.00000000
         1         1         1         1        21         1     -0.00000000
         1         1         1         1        21         2      0.00000000
         1         1         1         1        21         3     -0.00000000
         1         1         1         1        21         4     -0.00000000
         1         1         1         1        21         5     -0.00000000
         1         1         1         1        21         6      0.00000000
         1         1         1         1        21         7     -0.00000000
         1         1         1         1        21         8      0.00000000
         1         1         1         1        21         9     -0.00000000
         1         1         1         1        21        10      0.00000000
         1         1         1         1        21        11      0.00000000
         1         1         1         1        21        12      0.00000000
         1         1         1         1        21        13     -0.00000000
         1         1         1         1        21        14     -0.00000000
         1         1         1         1        21        15     -0.00000000
         1         1         1         1        21        16     -0.00000000
         1         1         1         1        21        17     -0.00000000
         1         1         1         1        21        18      0.00000000
         1         1         1         1        21        19      0.00000000
         1         1         1         1        21        20     -0.00000000
         1         1         1         1        21        21     -0.00000572
         1         1         1         1        21        22      0.00000000
         1         1         1         1        21        23     -0.00000000
         1         1         1         1        21        24      0.00000000
         1         1         1         1        21        25     -0.00000000
         1         1         1         1        22         1     -0.00000000
         1         1         1         1        22         2     -0.00000000
         1         1         1         1        22         3      0.00000000
         1         1         1         1        22         4     -0.00011910
         1         1         1         1        22         5      0.00000000
         1         1         1         1        22         6      0.00000000
         1         1         1         1        22         7      0.00000000
         1         1         1         1        22         8      0.00023584
         1         1         1         1        22         9      0.00000000
         1         1         1         1        22        10      0.00000000
         1         1         1         1        22        11      0.00009155
         1         1         1         1        22        12     -0.00000000
         1         1         1         1        22        13      0.00000000
         1         1         1         1        22        14      0.00000000
         1         1         1         1        22        15     -0.00000000
         1         1         1         1        22        16     -0.00000000
         1         1         1         1        22        17     -0.00000000
         1         1         1         1        22        18      0.00000000
         1         1         1         1        22        19      0.00000000
         1         1         1         1        22        20     -0.00000000
         1         1         1         1        22        21      0.00000000
         1         1         1         1        22        22     -0.00030971
         1         1         1         1        22        23      0.00000000
         1         1         1         1        22        24      0.00000000
         1         1         1         1        22        25      0.00000000
         1         1         1         1        23         1     -0.00000000
         1         1         1         1        23         2      0.00000000
         1         1         1         1        23         3      0.00000000
         1         1         1         1        23         4     -0.00000000
         1         1         1         1        23         5     -0.00005511
         1         1         1         1        23         6      0.00000924
         1         1         1         1        23         7      0.00000000
         1         1         1         1        23         8     -0.00000000
         1         1         1         1        23         9      0.00000000
         1         1         1         1        23        10      0.00000000
         1         1         1         1        23        11      0.00000000
         1         1         1         1        23        12      0.00030869
         1         1         1         1        23        13     -0.00038320
         1         1         1         1        23        14     -0.00000000
         1         1         1         1        23        15     -0.00000000
         1         1         1         1        23        16      0.00000000
         1         1         1         1        23        17     -0.00000000
         1         1         1         1        23        18     -0.00000000
         1         1         1         1        23        19     -0.00000000
         1         1         1         1        23        20      0.00000000
         1         1         1         1        23        21     -0.00000000
         1         1         1         1        23        22      0.00000000
         1         1         1         1        23        23     -0.00032705
         1         1         1         1        23        24     -0.00000000
         1         1         1         1        23        25      0.00000000
         1         1         1         1        24         1     -0.00000000
         1         1         1         1        24         2     -0.00000000
         1         1         1         1        24         3      0.00000000
         1         1         1         1        24         4     -0.00000000
         1         1         1         1        24         5      0.00000924
         1         1         1         1        24         6      0.00005511
         1         1         1         1        24         7      0.00000000
         1         1         1         1        24         8     -0.00000000
         1         1         1         1        24         9      0.00000000
         1         1         1         1        24        10     -0.00000000
         1         1         1         1        24        11      0.00000000
         1         1         1         1        24        12     -0.00038320
         1         1         1         1        24        13     -0.00030869
         1         1         1         1        24        14      0.00000000
         1         1         1         1        24        15     -0.00000000
         1         1         1         1        24        16      0.00000000
         1         1         1         1        24        17     -0.00000000
         1         1         1         1        24        18      0.00000000
         1         1         1         1        24        19     -0.00000000
         1         1         1         1        24        20      0.00000000
         1         1         1         1        24        21      0.00000000
         1         1         1         1        24        22      0.00000000
         1         1         1         1        24        23     -0.00000000
         1         1         1         1        24        24     -0.00032705
         1         1         1         1        24        25      0.00000000
         1         1         1         1        25         1     -0.00047505
         1         1         1         1        25         2      0.00000000
         1         1         1         1        25         3      0.00000000
         1         1         1         1        25         4      0.00000000
         1         1         1         1        25         5     -0.00000000
         1         1         1         1        25         6      0.00000000
         1         1         1         1        25         7      0.00053739
         1         1         1         1        25         8     -0.00000000
         1         1         1         1        25         9      0.00000000
         1         1         1         1        25        10      0.00000000
         1         1         1         1        25        11      0.00000000
         1         1         1         1        25        12     -0.00000000
         1         1         1         1        25        13      0.00000000
         1         1         1         1        25        14     -0.00117482
         1         1         1         1        25        15     -0.00003036
         1         1         1         1        25        16     -0.00000000
         1         1         1         1        25        17     -0.00000000
         1         1         1         1        25        18      0.00000000
         1         1         1         1        25        19     -0.00000000
         1         1         1         1        25        20      0.00000000
         1         1         1         1        25        21     -0.00000000
         1         1         1         1        25        22      0.00000000
         1         1         1         1        25        23      0.00000000
         1         1         1         1        25        24      0.00000000
         1         1         1         1        25        25     -0.00285175
         2         1         1         1         1         1     -0.00000000
         2         1         1         1         1         2      0.00000000
         2         1         1         1         1         3      0.00000000
         2         1         1         1         1         4      0.00004456
         2         1         1         1         1         5      0.00000000
         2         1         1         1         1         6     -0.00000000
         2         1         1         1         1         7     -0.00000000
         2         1         1         1         1         8     -0.00002954
         2         1         1         1         1         9      0.00000000
         2         1         1         1         1        10      0.00000000
         2         1         1         1         1        11     -0.00046466
         2         1         1         1         1        12     -0.00000000
         2         1         1         1         1        13     -0.00000000
         2         1         1         1         1        14     -0.00000000
         2         1         1         1         1        15     -0.00000000
         2         1         1         1         1        16      0.00000000
         2         1         1         1         1        17     -0.00000000
         2         1         1         1         1        18      0.00000000
         2         1         1         1         1        19     -0.00000000
         2         1         1         1         1        20     -0.00000000
         2         1         1         1         1        21     -0.00000000
         2         1         1         1         1        22      0.00023528
         2         1         1         1         1        23      0.00000000
         2         1         1         1         1        24      0.00000000
         2         1         1         1         1        25     -0.00000000
         2         1         1         1         2         1      0.00000000
         2         1         1         1         2         2      0.00000000
         2         1         1         1         2         3      0.00000000
         2         1         1         1         2         4     -0.00000000
         2         1         1         1         2         5     -0.00002590
         2         1         1         1         2         6     -0.00000199
         2         1         1         1         2         7     -0.00000000
         2         1         1         1         2         8      0.00000000
         2         1         1         1         2         9      0.00000000
         2         1         1         1         2        10      0.00000000
         2         1         1         1         2        11     -0.00000000
         2         1         1         1         2        12      0.00017441
         2         1         1         1         2        13     -0.00013251
         2         1         1         1         2        14      0.00000000
         2         1         1         1         2        15     -0.00000000
         2         1         1         1         2        16     -0.00000000
         2         1         1         1         2        17      0.00000000
         2         1         1         1         2        18      0.00000000
         2         1         1         1         2        19      0.00000000
         2         1         1         1         2        20     -0.00000000
         2         1         1         1         2        21     -0.00000000
         2         1         1         1         2        22     -0.00000000
         2         1         1         1         2        23     -0.00013419
         2         1         1         1         2        24      0.00003326
         2         1         1         1         2        25      0.00000000
         2         1         1         1         3         1      0.00000000
         2         1         1         1         3         2      0.00000000
         2         1         1         1         3         3      0.00000000
         2         1         1         1         3         4      0.00000000
         2         1         1         1         3         5     -0.00000199
         2         1         1         1         3         6      0.00002590
         2         1         1         1         3         7     -0.00000000
         2         1         1         1         3         8     -0.00000000
         2         1         1         1         3         9      0.00000000
         2         1         1         1         3        10     -0.00000000
         2         1         1         1         3        11      0.00000000
         2         1         1         1         3        12     -0.00013251
         2         1         1         1         3        13     -0.00017441
         2         1         1         1         3        14     -0.00000000
         2         1         1         1         3        15      0.00000000
         2         1         1         1         3        16     -0.00000000
         2         1         1         1         3        17     -0.00000000
         2         1         1         1         3        18     -0.00000000
         2         1         1         1         3        19      0.00000000
         2         1         1         1         3        20     -0.00000000
         2         1         1         1         3        21      0.00000000
         2         1         1         1         3        22      0.00000000
         2         1         1         1         3        23     -0.00003326
         2         1         1         1         3        24     -0.00013419
         2         1         1         1         3        25     -0.00000000
         2         1         1         1         4         1      0.00005197
         2         1         1         1         4         2     -0.00000000
         2         1         1         1         4         3      0.00000000
         2         1         1         1         4         4      0.00000000
         2         1         1         1         4         5     -0.00000000
         2         1         1         1         4         6     -0.00000000
         2         1         1         1         4         7     -0.00009920
         2         1         1         1         4         8     -0.00000000
         2         1         1         1         4         9     -0.00000000
         2         1         1         1         4        10     -0.00000000
         2         1         1         1         4        11      0.00000000
         2         1         1         1         4        12      0.00000000
         2         1         1         1         4        13      0.00000000
         2         1         1         1         4        14     -0.00018020
         2         1         1         1         4        15      0.00013483
         2         1         1         1         4        16     -0.00000000
         2         1         1         1         4        17      0.00000000
         2         1         1         1         4        18      0.00000000
         2         1         1         1         4        19      0.00000000
         2         1         1         1         4        20      0.00000000
         2         1         1         1         4        21      0.00000000
         2         1         1         1         4        22      0.00000000
         2         1         1         1         4        23     -0.00000000
         2         1         1         1         4        24      0.00000000
         2         1         1         1         4        25     -0.00035997
         2         1         1         1         5         1      0.00000000
         2         1         1         1         5         2     -0.00002799
         2         1         1         1         5         3     -0.00000215
         2         1         1         1         5         4     -0.00000000
         2         1         1         1         5         5      0.00000000
         2         1         1         1         5         6      0.00000000
         2         1         1         1         5         7     -0.00000000
         2         1         1         1         5         8     -0.00000000
         2         1         1         1         5         9     -0.00001735
         2         1         1         1         5        10     -0.00009175
         2         1         1         1         5        11     -0.00000000
         2         1         1         1         5        12      0.00000000
         2         1         1         1         5        13     -0.00000000
         2         1         1         1         5        14      0.00000000
         2         1         1         1         5        15      0.00000000
         2         1         1         1         5        16      0.00000000
         2         1         1         1         5        17      0.00000000
         2         1         1         1         5        18      0.00001518
         2         1         1         1         5        19      0.00001054
         2         1         1         1         5        20     -0.00000000
         2         1         1         1         5        21      0.00000000
         2         1         1         1         5        22     -0.00000000
         2         1         1         1         5        23     -0.00000000
         2         1         1         1         5        24      0.00000000
         2         1         1         1         5        25      0.00000000
         2         1         1         1         6         1     -0.00000000
         2         1         1         1         6         2     -0.00000215
         2         1         1         1         6         3      0.00002799
         2         1         1         1         6         4     -0.00000000
         2         1         1         1         6         5      0.00000000
         2         1         1         1         6         6      0.00000000
         2         1         1         1         6         7      0.00000000
         2         1         1         1         6         8     -0.00000000
         2         1         1         1         6         9      0.00009175
         2         1         1         1         6        10     -0.00001735
         2         1         1         1         6        11      0.00000000
         2         1         1         1         6        12      0.00000000
         2         1         1         1         6        13      0.00000000
         2         1         1         1         6        14     -0.00000000
         2         1         1         1         6        15     -0.00000000
         2         1         1         1         6        16     -0.00000000
         2         1         1         1         6        17      0.00000000
         2         1         1         1         6        18      0.00001054
         2         1         1         1         6        19     -0.00001518
         2         1         1         1         6        20     -0.00000000
         2         1         1         1         6        21      0.00000000
         2         1         1         1         6        22      0.00000000
         2         1         1         1         6        23      0.00000000
         2         1         1         1         6        24      0.00000000
         2         1         1         1         6        25     -0.00000000
         2         1         1         1         7         1     -0.00000000
         2         1         1         1         7         2     -0.00000000
         2         1         1         1         7         3     -0.00000000
         2         1         1         1         7         4     -0.00009233
         2         1         1         1         7         5     -0.00000000
         2         1         1         1         7         6      0.00000000
         2         1         1         1         7         7     -0.00000000
         2         1         1         1         7         8      0.00010861
         2         1         1         1         7         9     -0.00000000
         2         1         1         1         7        10     -0.00000000
         2         1         1         1         7        11      0.00058618
         2         1         1         1         7        12      0.00000000
         2         1         1         1         7        13      0.00000000
         2         1         1         1         7        14     -0.00000000
         2         1         1         1         7        15     -0.00000000
         2         1         1         1         7        16     -0.00000000
         2         1         1         1         7        17     -0.00000000
         2         1         1         1         7        18     -0.00000000
         2         1         1         1         7        19      0.00000000
         2         1         1         1         7        20      0.00000000
         2         1         1         1         7        21     -0.00000000
         2         1         1         1         7        22     -0.00037170
         2         1         1         1         7        23     -0.00000000
         2         1         1         1         7        24     -0.00000000
[...]
         3         3         1         1        17         2      0.00000000
         3         3         1         1        17         3      0.00000000
         3         3         1         1        17         4     -0.00000000
         3         3         1         1        17         5      0.00000000
         3         3         1         1        17         6      0.00000000
         3         3         1         1        17         7     -0.00000000
         3         3         1         1        17         8     -0.00000000
         3         3         1         1        17         9     -0.00000000
         3         3         1         1        17        10     -0.00000000
         3         3         1         1        17        11     -0.00000000
         3         3         1         1        17        12     -0.00000000
         3         3         1         1        17        13      0.00000000
         3         3         1         1        17        14     -0.00000000
         3         3         1         1        17        15      0.00000000
         3         3         1         1        17        16     -0.00000000
         3         3         1         1        17        17     -0.00632219
         3         3         1         1        17        18     -0.00000000
         3         3         1         1        17        19      0.00000000
         3         3         1         1        17        20      0.00000000
         3         3         1         1        17        21     -0.00000000
         3         3         1         1        17        22     -0.00000000
         3         3         1         1        17        23      0.00000000
         3         3         1         1        17        24     -0.00000000
         3         3         1         1        17        25     -0.00000000
         3         3         1         1        18         1     -0.00000000
         3         3         1         1        18         2     -0.02720789
         3         3         1         1        18         3      0.01594754
         3         3         1         1        18         4     -0.00000000
         3         3         1         1        18         5     -0.00000000
         3         3         1         1        18         6     -0.00000000
         3         3         1         1        18         7     -0.00000000
         3         3         1         1        18         8     -0.00000000
         3         3         1         1        18         9      0.00997478
         3         3         1         1        18        10     -0.02233057
         3         3         1         1        18        11      0.00000000
         3         3         1         1        18        12      0.00000000
         3         3         1         1        18        13     -0.00000000
         3         3         1         1        18        14     -0.00000000
         3         3         1         1        18        15      0.00000000
         3         3         1         1        18        16     -0.00000000
         3         3         1         1        18        17     -0.00000000
         3         3         1         1        18        18     -0.01312803
         3         3         1         1        18        19     -0.00000000
         3         3         1         1        18        20     -0.00000000
         3         3         1         1        18        21     -0.00000000
         3         3         1         1        18        22     -0.00000000
         3         3         1         1        18        23      0.00000000
         3         3         1         1        18        24     -0.00000000
         3         3         1         1        18        25      0.00000000
         3         3         1         1        19         1      0.00000000
         3         3         1         1        19         2     -0.01594754
         3         3         1         1        19         3     -0.02720789
         3         3         1         1        19         4      0.00000000
         3         3         1         1        19         5     -0.00000000
         3         3         1         1        19         6      0.00000000
         3         3         1         1        19         7     -0.00000000
         3         3         1         1        19         8      0.00000000
         3         3         1         1        19         9     -0.02233057
         3         3         1         1        19        10     -0.00997478
         3         3         1         1        19        11     -0.00000000
         3         3         1         1        19        12     -0.00000000
         3         3         1         1        19        13     -0.00000000
         3         3         1         1        19        14     -0.00000000
         3         3         1         1        19        15      0.00000000
         3         3         1         1        19        16      0.00000000
         3         3         1         1        19        17      0.00000000
         3         3         1         1        19        18     -0.00000000
         3         3         1         1        19        19     -0.01312803
         3         3         1         1        19        20      0.00000000
         3         3         1         1        19        21     -0.00000000
         3         3         1         1        19        22     -0.00000000
         3         3         1         1        19        23      0.00000000
         3         3         1         1        19        24      0.00000000
         3         3         1         1        19        25     -0.00000000
         3         3         1         1        20         1      0.00000000
         3         3         1         1        20         2     -0.00000000
         3         3         1         1        20         3      0.00000000
         3         3         1         1        20         4      0.00000000
         3         3         1         1        20         5     -0.00000000
         3         3         1         1        20         6      0.00000000
         3         3         1         1        20         7     -0.00000000
         3         3         1         1        20         8      0.00000000
         3         3         1         1        20         9      0.00000000
         3         3         1         1        20        10     -0.00000000
         3         3         1         1        20        11     -0.00000000
         3         3         1         1        20        12      0.00000000
         3         3         1         1        20        13     -0.00000000
         3         3         1         1        20        14      0.00000000
         3         3         1         1        20        15     -0.00000000
         3         3         1         1        20        16     -0.00000000
         3         3         1         1        20        17      0.00000000
         3         3         1         1        20        18     -0.00000000
         3         3         1         1        20        19      0.00000000
         3         3         1         1        20        20     -0.00201311
         3         3         1         1        20        21     -0.00000000
         3         3         1         1        20        22     -0.00000000
         3         3         1         1        20        23     -0.00000000
         3         3         1         1        20        24     -0.00000000
         3         3         1         1        20        25      0.00000000
         3         3         1         1        21         1      0.00000000
         3         3         1         1        21         2     -0.00000000
         3         3         1         1        21         3      0.00000000
         3         3         1         1        21         4      0.00000000
         3         3         1         1        21         5      0.00000000
         3         3         1         1        21         6     -0.00000000
         3         3         1         1        21         7     -0.00000000
         3         3         1         1        21         8     -0.00000000
         3         3         1         1        21         9     -0.00000000
         3         3         1         1        21        10     -0.00000000
         3         3         1         1        21        11     -0.00000000
         3         3         1         1        21        12      0.00000000
         3         3         1         1        21        13      0.00000000
         3         3         1         1        21        14     -0.00000000
         3         3         1         1        21        15     -0.00000000
         3         3         1         1        21        16     -0.00000000
         3         3         1         1        21        17     -0.00000000
         3         3         1         1        21        18     -0.00000000
         3         3         1         1        21        19     -0.00000000
         3         3         1         1        21        20     -0.00000000
         3         3         1         1        21        21     -0.00201311
         3         3         1         1        21        22      0.00000000
         3         3         1         1        21        23     -0.00000000
         3         3         1         1        21        24      0.00000000
         3         3         1         1        21        25      0.00000000
         3         3         1         1        22         1      0.00000000
         3         3         1         1        22         2      0.00000000
         3         3         1         1        22         3     -0.00000000
         3         3         1         1        22         4     -0.01895953
         3         3         1         1        22         5      0.00000000
         3         3         1         1        22         6     -0.00000000
         3         3         1         1        22         7     -0.00000000
         3         3         1         1        22         8      0.02485059
         3         3         1         1        22         9      0.00000000
         3         3         1         1        22        10     -0.00000000
         3         3         1         1        22        11     -0.00147452
         3         3         1         1        22        12      0.00000000
         3         3         1         1        22        13      0.00000000
         3         3         1         1        22        14      0.00000000
         3         3         1         1        22        15      0.00000000
         3         3         1         1        22        16     -0.00000000
         3         3         1         1        22        17     -0.00000000
         3         3         1         1        22        18     -0.00000000
         3         3         1         1        22        19     -0.00000000
         3         3         1         1        22        20     -0.00000000
         3         3         1         1        22        21      0.00000000
         3         3         1         1        22        22     -0.01139698
         3         3         1         1        22        23      0.00000000
         3         3         1         1        22        24      0.00000000
         3         3         1         1        22        25     -0.00000000
         3         3         1         1        23         1      0.00000000
         3         3         1         1        23         2     -0.00000000
         3         3         1         1        23         3     -0.00000000
         3         3         1         1        23         4     -0.00000000
         3         3         1         1        23         5     -0.00130576
         3         3         1         1        23         6      0.00021897
         3         3         1         1        23         7     -0.00000000
         3         3         1         1        23         8     -0.00000000
         3         3         1         1        23         9     -0.00000000
         3         3         1         1        23        10     -0.00000000
         3         3         1         1        23        11      0.00000000
         3         3         1         1        23        12      0.00158997
         3         3         1         1        23        13     -0.00197375
         3         3         1         1        23        14      0.00000000
         3         3         1         1        23        15      0.00000000
         3         3         1         1        23        16     -0.00000000
         3         3         1         1        23        17      0.00000000
         3         3         1         1        23        18      0.00000000
         3         3         1         1        23        19      0.00000000
         3         3         1         1        23        20     -0.00000000
         3         3         1         1        23        21     -0.00000000
         3         3         1         1        23        22      0.00000000
         3         3         1         1        23        23     -0.00230788
         3         3         1         1        23        24      0.00000000
         3         3         1         1        23        25      0.00000000
         3         3         1         1        24         1     -0.00000000
         3         3         1         1        24         2      0.00000000
         3         3         1         1        24         3     -0.00000000
         3         3         1         1        24         4     -0.00000000
         3         3         1         1        24         5      0.00021897
         3         3         1         1        24         6      0.00130576
         3         3         1         1        24         7     -0.00000000
         3         3         1         1        24         8     -0.00000000
         3         3         1         1        24         9     -0.00000000
         3         3         1         1        24        10      0.00000000
         3         3         1         1        24        11      0.00000000
         3         3         1         1        24        12     -0.00197375
         3         3         1         1        24        13     -0.00158997
         3         3         1         1        24        14     -0.00000000
         3         3         1         1        24        15      0.00000000
         3         3         1         1        24        16     -0.00000000
         3         3         1         1        24        17     -0.00000000
         3         3         1         1        24        18     -0.00000000
         3         3         1         1        24        19      0.00000000
         3         3         1         1        24        20     -0.00000000
         3         3         1         1        24        21      0.00000000
         3         3         1         1        24        22      0.00000000
         3         3         1         1        24        23      0.00000000
         3         3         1         1        24        24     -0.00230788
         3         3         1         1        24        25      0.00000000
         3         3         1         1        25         1      0.00689107
         3         3         1         1        25         2     -0.00000000
         3         3         1         1        25         3     -0.00000000
         3         3         1         1        25         4      0.00000000
         3         3         1         1        25         5     -0.00000000
         3         3         1         1        25         6     -0.00000000
         3         3         1         1        25         7     -0.00627797
         3         3         1         1        25         8     -0.00000000
         3         3         1         1        25         9     -0.00000000
         3         3         1         1        25        10     -0.00000000
         3         3         1         1        25        11     -0.00000000
         3         3         1         1        25        12     -0.00000000
         3         3         1         1        25        13      0.00000000
         3         3         1         1        25        14     -0.00004136
         3         3         1         1        25        15      0.00573630
         3         3         1         1        25        16     -0.00000000
         3         3         1         1        25        17     -0.00000000
         3         3         1         1        25        18      0.00000000
         3         3         1         1        25        19     -0.00000000
         3         3         1         1        25        20      0.00000000
         3         3         1         1        25        21      0.00000000
         3         3         1         1        25        22     -0.00000000
         3         3         1         1        25        23      0.00000000
         3         3         1         1        25        24      0.00000000
         3         3         1         1        25        25     -0.00339290


 RESULTS
 =======

  Reference energy                    -14.869231121669

  Correlated core orbitals:             1.1       2.1
  Orbital energies:                    -2.4475   -2.4472

  CCD core-core energy                 -0.000390201127
  CCD core-valence energy              -0.000565128582
  CCD valence correlation energy       -0.030969923403

  CCD singlet pair energy              -0.031768185017
  CCD triplet pair energy              -0.000157068094
  CCD correlation energy               -0.031925253111

 !CCD total energy                    -14.901156374779

 Timing summary (sec):

 STEP                 CPU(USER)    SYS     CPU(TOT)    WALL
 CCSD iterations         0.10      0.02      0.12      0.11

 Program statistics:

 Available memory in ccsd:                39999164
 Min. memory needed in ccsd:                 19895
 Max. memory used in ccsd:                   21284
 Max. memory used in cckext:                 46716 (29 integral passes)



 **********************************************************************************************************************************
 DATASETS  * FILE   NREC   LENGTH (MB)   RECORD NAMES
              1      20       30.37       500      700      610      900      950      970     1000      129      960     1100   
                                          VAR     GEOM    BASINP   SYMINP    ZMAT    AOBASIS   BASIS     P2S    ABASIS      S 
                                         1400     1410     1200     1210     1080     1600     1650     1300     1700     1380   
                                           T        V       H0       H01     AOSYM     SMH    MOLCAS    ERIS     OPER     JKOP   

              3       5       14.79       500      610      700     1000     2100   
                                          VAR    BASINP    GEOM     BASIS     RHF  

 PROGRAMS   *        TOTAL      CCSD       INT   RESTART
 CPU TIMES  *         0.37      0.15      0.13      0.01
 REAL TIME  *         0.51 SEC
 DISK USED  *        49.48 MB
 **********************************************************************************************************************************
 Molecular orbitals read from record     2100.3  Type=RHF/CANONICAL (state 1.1)
 Occupation numbers read from record     2100.3  Type=RHF/RHF (state 1.1)
 Orbital energies read from record       2100.3  Type=RHF/CANONICAL (state 1.1)
 Redundancy group numbers read from rec  2100.3  Type=RHF/RHF (state 1.1)

 CCSD/cc-pVDZ energy=    -14.901156374779

            CCSD
    -14.90115637
 **********************************************************************************************************************************
 Molpro calculation terminated
