
 Primary working directories    : /scr/yuriaoto/job.023367/molpro.5cIBGbHhGQ
 Secondary working directories  : /scr/yuriaoto/job.023367/molpro.5cIBGbHhGQ
 Wavefunction directory         : /scr/yuriaoto/job.023367/
 Main file repository           : /scr/yuriaoto/job.023367/molpro.5cIBGbHhGQ/

 id        : yuriaoto

 Nodes             nprocs
 t-rex.ufabc.int.br    1

 Using customized tuning parameters: mindgm=8; mindgv=16; mindgc=1; mindgr=1; noblas=0; minvec=7
 default implementation of scratch files=df  


 Variables initialized (933), CPU time= 0.00 sec
 ***,
 memory,400,m
 gprint,orbital,basis,civector
 gthresh,thrprint=0,printci=0.0
 file,3,wfu.dat,old
 
 {fci
 core,0
 wf,10,1,0
 }
 
 Commands  initialized (760), CPU time= 0.01 sec, 617 directives.
 Default parameters read. Elapsed time= 0.04 sec

 Checking input...
 Passed
1


                                         ***  PROGRAM SYSTEM MOLPRO  ***
                                       Copyright, TTI GmbH Stuttgart, 2015
                                    Version 2019.2 linked Abr  7 2019 15:10:35


 **********************************************************************************************************************************
 LABEL *                                                                                 
  64 bit serial version                                                                  DATE: 02-Jun-20          TIME: 00:06:45  
 **********************************************************************************************************************************

 SHA1:             3a8a58c585c929645742fb5a1b7541a4ad1da699
 **********************************************************************************************************************************


 THRESHOLDS:

 ZERO    =  1.00D-12  ONEINT  =  1.00D-12  TWOINT  =  1.00D-11  PREFAC  =  1.00D-14  XXXXXX  =  1.00D-09  EORDER  =  1.00D-04
 ENERGY  =  0.00D+00  ETEST   =  0.00D+00  EDENS   =  0.00D+00  THRDEDEF=  1.00D-06  GRADIENT=  1.00D-02  STEP    =  1.00D-03
 ORBITAL =  1.00D-05  CIVEC   =  1.00D-05  COEFF   =  1.00D-04  PRINTCI =  0.00D+00  PUNCHCI =  9.90D+01  OPTGRAD =  3.00D-04
 OPTENERG=  1.00D-06  OPTSTEP =  3.00D-04  THRGRAD =  1.00D-10  COMPRESS=  1.00D-11  VARMIN  =  1.00D-07  VARMAX  =  1.00D-03
 THRDOUB =  0.00D+00  THRDIV  =  1.00D-05  THRRED  =  1.00D-07  THRPSP  =  1.00D+00  THRDC   =  1.00D-10  THRCS   =  1.00D-10
 THRNRM  =  1.00D-08  THREQ   =  0.00D+00  THRDE   =  1.00D+00  THRREF  =  1.00D-05  SPARFAC =  1.00D+00  THRDLP  =  1.00D-07
 THRDIA  =  1.00D-10  THRDLS  =  1.00D-07  THRGPS  =  0.00D+00  THRKEX  =  0.00D+00  THRDIS  =  2.00D-01  THRVAR  =  1.00D-10
 THRLOC  =  1.00D-06  THRGAP  =  1.00D-06  THRLOCT = -1.00D+00  THRGAPT = -1.00D+00  THRORB  =  1.00D-06  THRMLTP =  0.00D+00
 THRCPQCI=  1.00D-10  KEXTA   =  0.00D+00  THRCOARS=  0.00D+00  SYMTOL  =  1.00D-06  GRADTOL =  1.00D-06  THROVL  =  1.00D-08
 THRORTH =  1.00D-08  GRID    =  1.00D-06  GRIDMAX =  1.00D-03  DTMAX   =  0.00D+00  THROCCDE=  1.00D-01  THROCCDE=  1.00D-01
 THRPRINT=  0.00D+00


 Variable memory set to  400000000 words,  buffer space 



 Permanent file  3  wfu.dat  assigned.  Implementation=df    Size= 14.09 MB


 PROGRAM * RESTART 


 Reading variables from file 3

 _FNUC           =      0.00000000
 _BASIS          =    STO-3G
 _NELEC          =     10.00000000
 _PROGRAM        =    HF-SCF
 _DMZ            =      0.40258781
 _DMX_SCF        =      0.00000000
 _DMY_SCF        =      0.00000000
 _DMZ_SCF        =      0.40258781
 _HOMO           =      3.10000000
 _EHOMO          =     -0.37075380
 _LUMO           =      4.10000000
 _ELUMO          =      0.24307043
 _ENERGY         =    -74.70421439
 _ENERGY_METHOD  =    HF
 _ENERGY_BASIS   =    STO-3G
 _ENUC           =      5.86779464
 _EPS1(1:3)      =    -20.30905298    -1.14293528    -0.37075380
 _EPS2           =     -0.39986588
 _EPS3           =     -0.40622684
 _IPROC_MPP      =      0.00000000
 _IPROC_MPPX     =      0.00000000
 _ORBITAL        =   2100.30000000
 _STATUS         =      1.00000000
 _DATE           =    21-Oct-19
 _LASTORB        =    RHF
 _OUTPUT         =    /scr/yuriaoto/job.022438/RHF.xml
 _PGROUP         =    C2v 
 _TIME           =    13:44:19
 R               =      1.50000000
 A               =    104.40000000

 Geometry written to block  1 of record 700


 **********************************************************************************************************************************
 DATASETS  * FILE   NREC   LENGTH (MB)   RECORD NAMES
              3       5       14.78       500      610      700     1000     2100   
                                          VAR    BASINP    GEOM     BASIS     RHF  

 PROGRAMS   *        TOTAL   RESTART
 CPU TIMES  *         0.12      0.02
 REAL TIME  *         0.14 SEC
 DISK USED  *        26.85 MB
 **********************************************************************************************************************************


 Recomputing integrals since basis changed


 Using spherical harmonics

 Library entry H      S STO-3G               selected for orbital group  1
 Library entry O      S STO-3G               selected for orbital group  2
 Library entry O      P STO-3G               selected for orbital group  2


 PROGRAM * SEWARD (Integral evaluation for generally contracted gaussian basis sets)     Author: Roland Lindh, 1990

 Geometry written to block  1 of record 700

 Orientation using atomic masses  
 Molecule type: Asymmetric top,     Order of principal axis = 2
 Symmetry elements: X,Y
 Rotational constants:     116.3109047    333.9781665    178.4618522 GHz  (calculated with average atomic masses)

 Point group  C2v 



 ATOMIC COORDINATES

 NR  ATOM    CHARGE       X              Y              Z

   1  H1      1.00    0.000000000   -2.239764854    1.542934271
   2  H2      1.00    0.000000000    2.239764854    1.542934271
   3  O       8.00    0.000000000    0.000000000   -0.194405436


 BASIS DATA

   Nr Sym  Nuc  Type         Exponents   Contraction coefficients

    1.1 A1    1  1s           3.425251     0.154329
              2  1s           0.623914     0.535328
                              0.168855     0.444635
    2.1 A1    3  1s         130.709320     0.154329
                             23.808861     0.535328
                              6.443608     0.444635
    3.1 A1    3  1s           5.033151    -0.099967
                              1.169596     0.399513
                              0.380389     0.700115
    4.1 A1    3  2pz          5.033151     0.155916
                              1.169596     0.607684
                              0.380389     0.391957
    1.2 B1    3  2px          5.033151     0.155916
                              1.169596     0.607684
                              0.380389     0.391957
    1.3 B2    1  1s           3.425251     0.154329
              2 -1s           0.623914     0.535328
                              0.168855     0.444635
    2.3 B2    3  2py          5.033151     0.155916
                              1.169596     0.607684
                              0.380389     0.391957

 NUCLEAR CHARGE:                   10
 NUMBER OF PRIMITIVE AOS:          21
 NUMBER OF SYMMETRY AOS:           21
 NUMBER OF CONTRACTIONS:            7   (    4A1  +    1B1  +    2B2  +    0A2  )
 NUMBER OF CORE ORBITALS:           1   (    1A1  +    0B1  +    0B2  +    0A2  )
 NUMBER OF VALENCE ORBITALS:        6   (    3A1  +    1B1  +    2B2  +    0A2  )


 NUCLEAR REPULSION ENERGY    5.86779464

 Eigenvalues of metric

         1 0.638E+00 0.897E+00 0.110E+01 0.143E+01
         2 0.100E+01
         3 0.746E+00 0.119E+01


 Contracted 2-electron integrals neglected if value below      1.0D-11
 AO integral compression algorithm  1   Integral accuracy      1.0D-11

     0.262 MB (compressed) written to integral file (100.0%)


 NUMBER OF SORTED TWO-ELECTRON INTEGRALS:        191.     BUFFER LENGTH:  32768
 NUMBER OF SEGMENTS:   1  SEGMENT LENGTH:        191      RECORD LENGTH: 524288

 Memory used in sort:       0.56 MW

 SORT1 READ         227. AND WROTE         171. INTEGRALS IN      1 RECORDS. CPU TIME:     0.00 SEC, REAL TIME:     0.01 SEC
 SORT2 READ         171. AND WROTE         191. INTEGRALS IN      1 RECORDS. CPU TIME:     0.00 SEC, REAL TIME:     0.00 SEC

 FILE SIZES:   FILE 1:    30.2 MBYTE,  FILE 4:     4.2 MBYTE,   TOTAL:     34.4 MBYTE

 OPERATOR DM      FOR CENTER  0  COORDINATES:    0.000000    0.000000    0.000000


 **********************************************************************************************************************************
 DATASETS  * FILE   NREC   LENGTH (MB)   RECORD NAMES
              1      19       29.95       500      700      610      900      950      970     1000      129      960     1100   
                                          VAR     GEOM    BASINP   SYMINP    ZMAT    AOBASIS   BASIS     P2S    ABASIS      S 
                                         1400     1410     1200     1210     1080     1600     1650     1300     1700   
                                           T        V       H0       H01     AOSYM     SMH    MOLCAS    ERIS     OPER   

              3       5       14.78       500      610      700     1000     2100   
                                          VAR    BASINP    GEOM     BASIS     RHF  

 PROGRAMS   *        TOTAL       INT   RESTART
 CPU TIMES  *         0.34      0.22      0.02
 REAL TIME  *         0.82 SEC
 DISK USED  *        49.45 MB
 **********************************************************************************************************************************


 PROGRAM * FCI (Full CI)     Author: P.J. Knowles, 1984


 Molecular orbitals read from record     2100.3  Type=RHF/CANONICAL (state 1.1)

 Frozen orbitals:              0 (  0  0  0  0  0  0  0  0)
 Active orbitals:              7 (  4  1  2  0  0  0  0  0)
 Active electrons:            10
 Spin quantum number:          0.0
 Orbital pairs:                    14       4       8       2       0       0       0       0
 Strings:                           4       7       2       8       0       0       0       0
                                    4       7       2       8       0       0       0       0
 Determinants:                            133              88             128              92
                                            0               0               0               0

 Load integrals                1.4 sec
 Transform integrals           1.4 sec
 Storage for integrals:            385
 Remaining memory:           399998668

 Core energy:               5.86779464
 Run Hamiltonian processor DAVIDSON
 Symmetry:                   1
 Trial vector:                  0.00
 Result vector:                 0.00
 Maximum iterations:           90
 Convergence threshold:         0.0000100
 RHS vector:                    0.00
 Hamiltonian shift:             0.0000000
 Output threshold:              0.0000000
 Options:                        0
 Number of roots:             1

 Hamiltonian diagonaliser entered at time      1.42

 Initial configuration generated:
      70      1.0000000    -74.7042144

 It  Tr    CPU  Convergence   Energy       Pop     dE(next)

  1   1    1.4  1.00000000   -74.70421439
                                           0.09 -0.23861539 -0.22850992
  2   1    1.4  0.33765902   -74.83767311
                                           0.14 -0.03706998 -0.03422924
  3   1    1.4  0.17581702   -74.86879904
                                           0.18 -0.00417527 -0.00379819
  4   1    1.4  0.05648993   -74.87241567
                                           0.20 -0.00100980 -0.00087139
  5   1    1.4  0.02655080   -74.87308680
                                           0.24 -0.00031947 -0.00028295
  6   1    1.4  0.01962194   -74.87341181
                                           0.26 -0.00007277 -0.00006201
  7   1    1.4  0.00596923   -74.87346961
                                           0.29 -0.00001626 -0.00001423
  8   1    1.4  0.00252810   -74.87348209
                                           0.30 -0.00000310 -0.00000257
  9   1    1.4  0.00133915   -74.87348465
                                           0.36 -0.00000064 -0.00000050
 10   1    1.4  0.00053819   -74.87348515
                                           0.37 -0.00000017 -0.00000015
 11   1    1.4  0.00029697   -74.87348531
                                           0.22 -0.00000003 -0.00000002
 12   1    1.4  0.00021711   -74.87348534
                                           0.26 -0.00000001 -0.00000001
 13   1    1.4  0.00009102   -74.87348535
                                           0.39 -0.00000000 -0.00000000
 14   1    1.4  0.00004456   -74.87348535
                                           0.31 -0.00000000 -0.00000000
 15   1    1.4  0.00001573   -74.87348535
                                           0.32 -0.00000000 -0.00000000
 16   1    1.4  0.00000767   -74.87348535


RESULTS FOR STATE  1.1
=====================

 Correlation energy                    -0.169270961653
 !FCI STATE  1.1 Energy               -74.873485352430
 CI Vector (threshold=  0.00    )
      -0.014172916805  1  2  3  6  7  1  2  3  6  7
       0.000656081503  1  2  3  6  7  1  2  4  6  7
      -0.000606917944  1  2  3  6  7  1  3  4  6  7
      -0.000000373686  1  2  3  6  7  2  3  4  6  7
       0.000656081503  1  2  4  6  7  1  2  3  6  7
       0.005306771461  1  2  4  6  7  1  2  4  6  7
      -0.000619755204  1  2  4  6  7  1  3  4  6  7
      -0.000001016151  1  2  4  6  7  2  3  4  6  7
      -0.000606917944  1  3  4  6  7  1  2  3  6  7
      -0.000619755204  1  3  4  6  7  1  2  4  6  7
       0.000605828825  1  3  4  6  7  1  3  4  6  7
      -0.000016156168  1  3  4  6  7  2  3  4  6  7
      -0.000000373686  2  3  4  6  7  1  2  3  6  7
      -0.000001016151  2  3  4  6  7  1  2  4  6  7
      -0.000016156168  2  3  4  6  7  1  3  4  6  7
       0.000007264035  2  3  4  6  7  2  3  4  6  7
      -0.099458813226  1  2  3  4  5  1  2  3  4  5
      -0.138363640554  1  2  3  4  5  1  2  5  6  7
       0.017967880333  1  2  3  4  5  1  3  5  6  7
       0.003339184812  1  2  3  4  5  1  4  5  6  7
      -0.000173777047  1  2  3  4  5  2  3  5  6  7
       0.000015031584  1  2  3  4  5  2  4  5  6  7
      -0.000020792880  1  2  3  4  5  3  4  5  6  7
      -0.138363640554  1  2  5  6  7  1  2  3  4  5
      -0.094961356925  1  2  5  6  7  1  2  5  6  7
      -0.002131842075  1  2  5  6  7  1  3  5  6  7
       0.002682271443  1  2  5  6  7  1  4  5  6  7
       0.000142351250  1  2  5  6  7  2  3  5  6  7
       0.000018336169  1  2  5  6  7  2  4  5  6  7
       0.000021398544  1  2  5  6  7  3  4  5  6  7
       0.017967880333  1  3  5  6  7  1  2  3  4  5
      -0.002131842075  1  3  5  6  7  1  2  5  6  7
      -0.019473609870  1  3  5  6  7  1  3  5  6  7
       0.001780407321  1  3  5  6  7  1  4  5  6  7
       0.000580054345  1  3  5  6  7  2  3  5  6  7
       0.000002746385  1  3  5  6  7  2  4  5  6  7
       0.000024474438  1  3  5  6  7  3  4  5  6  7
       0.003339184812  1  4  5  6  7  1  2  3  4  5
       0.002682271443  1  4  5  6  7  1  2  5  6  7
       0.001780407321  1  4  5  6  7  1  3  5  6  7
       0.006644477670  1  4  5  6  7  1  4  5  6  7
      -0.000018626680  1  4  5  6  7  2  3  5  6  7
      -0.000184488439  1  4  5  6  7  2  4  5  6  7
       0.000020647261  1  4  5  6  7  3  4  5  6  7
      -0.000173777047  2  3  5  6  7  1  2  3  4  5
       0.000142351250  2  3  5  6  7  1  2  5  6  7
       0.000580054345  2  3  5  6  7  1  3  5  6  7
      -0.000018626680  2  3  5  6  7  1  4  5  6  7
      -0.000222118333  2  3  5  6  7  2  3  5  6  7
       0.000010157779  2  3  5  6  7  2  4  5  6  7
      -0.000005161471  2  3  5  6  7  3  4  5  6  7
       0.000015031584  2  4  5  6  7  1  2  3  4  5
       0.000018336169  2  4  5  6  7  1  2  5  6  7
       0.000002746385  2  4  5  6  7  1  3  5  6  7
      -0.000184488439  2  4  5  6  7  1  4  5  6  7
       0.000010157779  2  4  5  6  7  2  3  5  6  7
       0.000076415579  2  4  5  6  7  2  4  5  6  7
      -0.000008372211  2  4  5  6  7  3  4  5  6  7
      -0.000020792880  3  4  5  6  7  1  2  3  4  5
       0.000021398544  3  4  5  6  7  1  2  5  6  7
       0.000024474438  3  4  5  6  7  1  3  5  6  7
       0.000020647261  3  4  5  6  7  1  4  5  6  7
      -0.000005161471  3  4  5  6  7  2  3  5  6  7
      -0.000008372211  3  4  5  6  7  2  4  5  6  7
       0.000009259539  3  4  5  6  7  3  4  5  6  7
      -0.021476932097  1  2  3  4  6  1  2  3  4  6
      -0.003294581567  1  2  3  4  6  1  2  3  4  7
      -0.003294581567  1  2  3  4  7  1  2  3  4  6
       0.005017749671  1  2  3  4  7  1  2  3  4  7
       0.898758018340  1  2  3  5  6  1  2  3  5  6
       0.003530878510  1  2  3  5  6  1  2  3  5  7
       0.037584938557  1  2  3  5  6  1  2  4  5  6
       0.003880795726  1  2  3  5  6  1  2  4  5  7
       0.016908220040  1  2  3  5  6  1  3  4  5  6
      -0.001783046460  1  2  3  5  6  1  3  4  5  7
       0.000065750925  1  2  3  5  6  2  3  4  5  6
      -0.000175121417  1  2  3  5  6  2  3  4  5  7
       0.003530878510  1  2  3  5  7  1  2  3  5  6
      -0.181141903453  1  2  3  5  7  1  2  3  5  7
       0.142249358504  1  2  3  5  7  1  2  4  5  6
      -0.012225817827  1  2  3  5  7  1  2  4  5  7
      -0.019752682731  1  2  3  5  7  1  3  4  5  6
      -0.004027531978  1  2  3  5  7  1  3  4  5  7
      -0.000001453578  1  2  3  5  7  2  3  4  5  6
       0.000038186723  1  2  3  5  7  2  3  4  5  7
       0.037584938557  1  2  4  5  6  1  2  3  5  6
       0.142249358504  1  2  4  5  6  1  2  3  5  7
      -0.205265512640  1  2  4  5  6  1  2  4  5  6
      -0.001020680675  1  2  4  5  6  1  2  4  5  7
       0.034139187753  1  2  4  5  6  1  3  4  5  6
       0.000835813263  1  2  4  5  6  1  3  4  5  7
      -0.000153364055  1  2  4  5  6  2  3  4  5  6
       0.000014781781  1  2  4  5  6  2  3  4  5  7
       0.003880795726  1  2  4  5  7  1  2  3  5  6
      -0.012225817827  1  2  4  5  7  1  2  3  5  7
      -0.001020680675  1  2  4  5  7  1  2  4  5  6
       0.099573278827  1  2  4  5  7  1  2  4  5  7
      -0.002504993504  1  2  4  5  7  1  3  4  5  6
      -0.013735853158  1  2  4  5  7  1  3  4  5  7
       0.000000000000  1  2  4  5  7  2  3  4  5  6
       0.000035972976  1  2  4  5  7  2  3  4  5  7
       0.016908220040  1  3  4  5  6  1  2  3  5  6
      -0.019752682731  1  3  4  5  6  1  2  3  5  7
       0.034139187753  1  3  4  5  6  1  2  4  5  6
      -0.002504993504  1  3  4  5  6  1  2  4  5  7
      -0.022162239451  1  3  4  5  6  1  3  4  5  6
      -0.000913265858  1  3  4  5  6  1  3  4  5  7
       0.000460712872  1  3  4  5  6  2  3  4  5  6
       0.000014361494  1  3  4  5  6  2  3  4  5  7
      -0.001783046460  1  3  4  5  7  1  2  3  5  6
      -0.004027531978  1  3  4  5  7  1  2  3  5  7
       0.000835813263  1  3  4  5  7  1  2  4  5  6
      -0.013735853158  1  3  4  5  7  1  2  4  5  7
      -0.000913265858  1  3  4  5  7  1  3  4  5  6
       0.007375382729  1  3  4  5  7  1  3  4  5  7
       0.000035299118  1  3  4  5  7  2  3  4  5  6
      -0.000155603048  1  3  4  5  7  2  3  4  5  7
       0.000065750925  2  3  4  5  6  1  2  3  5  6
      -0.000001453578  2  3  4  5  6  1  2  3  5  7
      -0.000153364055  2  3  4  5  6  1  2  4  5  6
       0.000000000000  2  3  4  5  6  1  2  4  5  7
       0.000460712872  2  3  4  5  6  1  3  4  5  6
       0.000035299118  2  3  4  5  6  1  3  4  5  7
      -0.000243652384  2  3  4  5  6  2  3  4  5  6
      -0.000009874432  2  3  4  5  6  2  3  4  5  7
      -0.000175121417  2  3  4  5  7  1  2  3  5  6
       0.000038186723  2  3  4  5  7  1  2  3  5  7
       0.000014781781  2  3  4  5  7  1  2  4  5  6
       0.000035972976  2  3  4  5  7  1  2  4  5  7
       0.000014361494  2  3  4  5  7  1  3  4  5  6
      -0.000155603048  2  3  4  5  7  1  3  4  5  7
      -0.000009874432  2  3  4  5  7  2  3  4  5  6
       0.000071714077  2  3  4  5  7  2  3  4  5  7
 /EOF
 !FCI STATE  1.1 Dipole moment          0.00000000     0.00000000     0.23211466
 Dipole moment /Debye                   0.00000000     0.00000000     0.58993797


 **********************************************************************************************************************************
 DATASETS  * FILE   NREC   LENGTH (MB)   RECORD NAMES
              1      19       29.95       500      700      610      900      950      970     1000      129      960     1100   
                                          VAR     GEOM    BASINP   SYMINP    ZMAT    AOBASIS   BASIS     P2S    ABASIS      S 
                                         1400     1410     1200     1210     1080     1600     1650     1300     1700   
                                           T        V       H0       H01     AOSYM     SMH    MOLCAS    ERIS     OPER   

              3       5       14.78       500      610      700     1000     2100   
                                          VAR    BASINP    GEOM     BASIS     RHF  

 PROGRAMS   *        TOTAL       FCI       INT   RESTART
 CPU TIMES  *         0.36      0.02      0.22      0.02
 REAL TIME  *         0.85 SEC
 DISK USED  *        49.45 MB
 **********************************************************************************************************************************
 Molecular orbitals read from record     2100.3  Type=RHF/CANONICAL (state 1.1)
 Occupation numbers read from record     2100.3  Type=RHF/RHF (state 1.1)
 Orbital energies read from record       2100.3  Type=RHF/CANONICAL (state 1.1)
 Redundancy group numbers read from rec  2100.3  Type=RHF/RHF (state 1.1)

 FCI/STO-3G energy=    -74.873485352430

             FCI
    -74.87348535
 **********************************************************************************************************************************
 Molpro calculation terminated
