
 Primary working directories    : /scr/yuriaoto/job.023507/molpro.PuWMkSyzd3
 Secondary working directories  : /scr/yuriaoto/job.023507/molpro.PuWMkSyzd3
 Wavefunction directory         : /scr/yuriaoto/job.023507/
 Main file repository           : /scr/yuriaoto/job.023507/molpro.PuWMkSyzd3/

 id        : yuriaoto

 Nodes             nprocs
 t-rex.ufabc.int.br    1

 Using customized tuning parameters: mindgm=8; mindgv=16; mindgc=1; mindgr=1; noblas=0; minvec=7
 default implementation of scratch files=df  


 Variables initialized (933), CPU time= 0.00 sec
 ***,
 memory,40,m
 gprint,orbital,basis,civector
 gthresh,thrprint=0,printci=0.0
 file,3,wfu.dat,old
 
 {ccsd,CC_NORM_MAX=200.0
 thresh,printci=0.0,ENERGY=1.0E+10,COEFF=1.0E+12
 print,ref=1
 occ,2,1,1,0, 1,1,1,0
 core,0
 wf,14,1,0;
 }
 
 Commands  initialized (760), CPU time= 0.01 sec, 617 directives.
 Default parameters read. Elapsed time= 0.04 sec

 Checking input...
 Passed
1


                                         ***  PROGRAM SYSTEM MOLPRO  ***
                                       Copyright, TTI GmbH Stuttgart, 2015
                                    Version 2019.2 linked Abr  7 2019 15:10:35


 **********************************************************************************************************************************
 LABEL *                                                                                 
  64 bit serial version                                                                  DATE: 02-Jun-20          TIME: 01:01:48  
 **********************************************************************************************************************************

 SHA1:             3a8a58c585c929645742fb5a1b7541a4ad1da699
 **********************************************************************************************************************************


 THRESHOLDS:

 ZERO    =  1.00D-12  ONEINT  =  1.00D-12  TWOINT  =  1.00D-11  PREFAC  =  1.00D-14  XXXXXX  =  1.00D-09  EORDER  =  1.00D-04
 ENERGY  =  0.00D+00  ETEST   =  0.00D+00  EDENS   =  0.00D+00  THRDEDEF=  1.00D-06  GRADIENT=  1.00D-02  STEP    =  1.00D-03
 ORBITAL =  1.00D-05  CIVEC   =  1.00D-05  COEFF   =  1.00D-04  PRINTCI =  0.00D+00  PUNCHCI =  9.90D+01  OPTGRAD =  3.00D-04
 OPTENERG=  1.00D-06  OPTSTEP =  3.00D-04  THRGRAD =  1.00D-10  COMPRESS=  1.00D-11  VARMIN  =  1.00D-07  VARMAX  =  1.00D-03
 THRDOUB =  0.00D+00  THRDIV  =  1.00D-05  THRRED  =  1.00D-07  THRPSP  =  1.00D+00  THRDC   =  1.00D-10  THRCS   =  1.00D-10
 THRNRM  =  1.00D-08  THREQ   =  0.00D+00  THRDE   =  1.00D+00  THRREF  =  1.00D-05  SPARFAC =  1.00D+00  THRDLP  =  1.00D-07
 THRDIA  =  1.00D-10  THRDLS  =  1.00D-07  THRGPS  =  0.00D+00  THRKEX  =  0.00D+00  THRDIS  =  2.00D-01  THRVAR  =  1.00D-10
 THRLOC  =  1.00D-06  THRGAP  =  1.00D-06  THRLOCT = -1.00D+00  THRGAPT = -1.00D+00  THRORB  =  1.00D-06  THRMLTP =  0.00D+00
 THRCPQCI=  1.00D-10  KEXTA   =  0.00D+00  THRCOARS=  0.00D+00  SYMTOL  =  1.00D-06  GRADTOL =  1.00D-06  THROVL  =  1.00D-08
 THRORTH =  1.00D-08  GRID    =  1.00D-06  GRIDMAX =  1.00D-03  DTMAX   =  0.00D+00  THROCCDE=  1.00D-01  THROCCDE=  1.00D-01
 THRPRINT=  0.00D+00


 Variable memory set to   40000000 words,  buffer space 



 Permanent file  3  wfu.dat  assigned.  Implementation=df    Size= 14.08 MB


 PROGRAM * RESTART 


 Reading variables from file 3

 _FNUC           =      0.00000000
 _BASIS          =    6-31G
 _NELEC          =     14.00000000
 _PROGRAM        =    RHF-SCF
 _DMX_SCF        =      0.00000000
 _DMY_SCF        =      0.00000000
 _DMZ_SCF        =      0.00000000
 _HOMO           =      1.60000000
 _EHOMO          =     -0.38392134
 _LUMO           =      2.50000000
 _ELUMO          =     -0.46667442
 _ENERGY         =   -107.38009094
 _ENERGY_METHOD  =    RHF
 _ENERGY_BASIS   =    6-31G
 _ENUC           =     16.33333333
 _EPS1(1:5)      =    -15.73544598    -1.04733051    -0.07940041     0.91426533     1.18245798
 _EPS2(1:2)      =     -0.54144768     0.87574288
 _EPS3(1:2)      =     -0.54144768     0.87574288
 _EPS5(1:5)      =    -15.73552654    -0.46667442     0.32356143     0.86926886     1.36910071
 _EPS6(1:2)      =     -0.38392134     0.94896024
 _EPS7(1:2)      =     -0.38392134     0.94896024
 _IPROC_MPP      =      0.00000000
 _IPROC_MPPX     =      0.00000000
 _ORBITAL        =   2100.30000000
 _STATUS         =      1.00000000
 _DATE           =    23-Mar-20
 _LASTORB        =    RHF
 _OUTPUT         =    /scr/yuriaoto/job.022813/RHF.xml
 _PGROUP         =    D2h 
 _TIME           =    14:34:42
 R               =      3.00000000

 Geometry written to block  1 of record 700


 **********************************************************************************************************************************
 DATASETS  * FILE   NREC   LENGTH (MB)   RECORD NAMES
              3       5       14.77       500      610      700     1000     2100   
                                          VAR    BASINP    GEOM     BASIS     RHF  

 PROGRAMS   *        TOTAL   RESTART
 CPU TIMES  *         0.12      0.02
 REAL TIME  *         0.15 SEC
 DISK USED  *        26.84 MB
 **********************************************************************************************************************************


 Recomputing integrals since basis changed


 Using spherical harmonics

 Library entry N      S 6-31G                selected for orbital group  1
 Library entry N      P 6-31G                selected for orbital group  1


 PROGRAM * SEWARD (Integral evaluation for generally contracted gaussian basis sets)     Author: Roland Lindh, 1990

 Geometry written to block  1 of record 700

 Orientation using atomic masses  
 Molecule type: Linear
 User-specified symmetry elements: X,Y,Z
 Symmetry elements: X,Y,Z
 Rotational constants:      28.6329822     28.6329822      0.0000000 GHz  (calculated with average atomic masses)

 Point group  D2h 



 ATOMIC COORDINATES

 NR  ATOM    CHARGE       X              Y              Z

   1  N1      7.00    0.000000000    0.000000000   -1.500000000
   2  N2      7.00    0.000000000    0.000000000    1.500000000

 Bond lengths in Bohr (Angstrom)

 1-2  3.000000000
     ( 1.587531633)


 BASIS DATA

   Nr Sym  Nuc  Type         Exponents   Contraction coefficients

    1.1 Ag    1  1s        4173.511500     0.001835
              2  1s         627.457910     0.013995
                            142.902090     0.068587
                             40.234329     0.232241
                             12.820213     0.469070
                              4.390437     0.360455
    2.1 Ag    1  1s          11.626362    -0.114961
              2  1s           2.716280    -0.169117
                              0.772218     1.145852
    3.1 Ag    1  1s           0.212032     1.000000
              2  1s    
    4.1 Ag    1  2pz         11.626362     0.067580
              2 -2pz          2.716280     0.323907
                              0.772218     0.740895
    5.1 Ag    1  2pz          0.212032     1.000000
              2 -2pz   
    1.2 B3u   1  2px         11.626362     0.067580
              2  2px          2.716280     0.323907
                              0.772218     0.740895
    2.2 B3u   1  2px          0.212032     1.000000
              2  2px   
    1.3 B2u   1  2py         11.626362     0.067580
              2  2py          2.716280     0.323907
                              0.772218     0.740895
    2.3 B2u   1  2py          0.212032     1.000000
              2  2py   
    1.5 B1u   1  1s        4173.511500     0.001835
              2 -1s         627.457910     0.013995
                            142.902090     0.068587
                             40.234329     0.232241
                             12.820213     0.469070
                              4.390437     0.360455
    2.5 B1u   1  1s          11.626362    -0.114961
              2 -1s           2.716280    -0.169117
                              0.772218     1.145852
    3.5 B1u   1  1s           0.212032     1.000000
              2 -1s    
    4.5 B1u   1  2pz         11.626362     0.067580
              2  2pz          2.716280     0.323907
                              0.772218     0.740895
    5.5 B1u   1  2pz          0.212032     1.000000
              2  2pz   
    1.6 B2g   1  2px         11.626362     0.067580
              2 -2px          2.716280     0.323907
                              0.772218     0.740895
    2.6 B2g   1  2px          0.212032     1.000000
              2 -2px   
    1.7 B3g   1  2py         11.626362     0.067580
              2 -2py          2.716280     0.323907
                              0.772218     0.740895
    2.7 B3g   1  2py          0.212032     1.000000
              2 -2py   

 NUCLEAR CHARGE:                   14
 NUMBER OF PRIMITIVE AOS:          44
 NUMBER OF SYMMETRY AOS:           44
 NUMBER OF CONTRACTIONS:           18   (    5Ag  +    2B3u +    2B2u +    0B1g +    5B1u +    2B2g +    2B3g +    0Au  )
 NUMBER OF CORE ORBITALS:           2   (    1Ag  +    0B3u +    0B2u +    0B1g +    1B1u +    0B2g +    0B3g +    0Au  )
 NUMBER OF VALENCE ORBITALS:        8   (    2Ag  +    1B3u +    1B2u +    0B1g +    2B1u +    1B2g +    1B3g +    0Au  )


 NUCLEAR REPULSION ENERGY   16.33333333

 Eigenvalues of metric

         1 0.238E+00 0.415E+00 0.926E+00 0.155E+01 0.276E+01
         2 0.544E+00 0.186E+01
         3 0.544E+00 0.186E+01
         5 0.420E-01 0.342E+00 0.806E+00 0.100E+01 0.192E+01
         6 0.352E+00 0.124E+01
         7 0.352E+00 0.124E+01


 Contracted 2-electron integrals neglected if value below      1.0D-11
 AO integral compression algorithm  1   Integral accuracy      1.0D-11

     0.262 MB (compressed) written to integral file (100.0%)


 NUMBER OF SORTED TWO-ELECTRON INTEGRALS:       2829.     BUFFER LENGTH:  32768
 NUMBER OF SEGMENTS:   1  SEGMENT LENGTH:       2829      RECORD LENGTH: 524288

 Memory used in sort:       0.56 MW

 SORT1 READ        8184. AND WROTE        2829. INTEGRALS IN      1 RECORDS. CPU TIME:     0.00 SEC, REAL TIME:     0.00 SEC
 SORT2 READ        2829. AND WROTE        2829. INTEGRALS IN      1 RECORDS. CPU TIME:     0.00 SEC, REAL TIME:     0.01 SEC

 FILE SIZES:   FILE 1:    30.2 MBYTE,  FILE 4:     4.2 MBYTE,   TOTAL:     34.4 MBYTE

 OPERATOR DM      FOR CENTER  0  COORDINATES:    0.000000    0.000000    0.000000


 **********************************************************************************************************************************
 DATASETS  * FILE   NREC   LENGTH (MB)   RECORD NAMES
              1      19       29.97       500      700      610      900      950      970     1000      129      960     1100   
                                          VAR     GEOM    BASINP   SYMINP    ZMAT    AOBASIS   BASIS     P2S    ABASIS      S 
                                         1400     1410     1200     1210     1080     1600     1650     1300     1700   
                                           T        V       H0       H01     AOSYM     SMH    MOLCAS    ERIS     OPER   

              3       5       14.77       500      610      700     1000     2100   
                                          VAR    BASINP    GEOM     BASIS     RHF  

 PROGRAMS   *        TOTAL       INT   RESTART
 CPU TIMES  *         0.26      0.14      0.02
 REAL TIME  *         0.44 SEC
 DISK USED  *        49.44 MB
 **********************************************************************************************************************************


 PROGRAM * CCSD (Closed-shell coupled cluster)     Authors: C. Hampel, H.-J. Werner, 1991, M. Deegan, P.J. Knowles, 1992


 Input parameters for THRESH:

 ENERGY   =    1.00D+10
 COEFF    =    1.00D+12
 PRINTCI  =    0.000000
 THRPRINT =    0.000000

 Convergence thresholds:  THRVAR = 1.00D+24  THRDEN = 1.00D+10

 Number of closed-shell orbitals:   7 (   2   1   1   0   1   1   1 )
 Number of external orbitals:      11 (   3   1   1   0   4   1   1 )

 Molecular orbitals read from record     2100.3  Type=RHF/CANONICAL (state 1.1)

 Number of N-1 electron functions:               7
 Number of N-2 electron functions:              28
 Number of singly external CSFs:                14
 Number of doubly external CSFs:               465
 Total number of CSFs:                         480

 Length of J-op  integral file:               0.00 MB
 Length of K-op  integral file:               0.04 MB
 Length of 3-ext integral record:             0.00 MB

 Integral transformation finished. Total CPU:   0.00 sec, npass=  1  Memory used:   0.07 MW

 Reference energy:                   -107.38009094

 MP2 singlet pair energy:              -0.08874089
 MP2 triplet pair energy:              -0.04594021
 MP2 correlation energy:               -0.13468110
 MP2 total energy:                   -107.51477205

 SCS-MP2 correlation energy:           -0.13507409   (PS=  1.200000  PT=  0.333333)
 SCS-MP2 total energy:               -107.51516503

 ITER.      SQ.NORM     CORR.ENERGY   TOTAL ENERGY   ENERGY CHANGE        DEN1      VAR(S)    VAR(P)  DIIS     TIME  TIME/IT
   1    254.64642693    -9.50763574  -116.88772668    -9.37295463     1.50050139  0.30D-03  0.23D+03  0  0     0.01     0.00

 Norm of t1 vector:      0.01741654      S-energy:    -0.00061201      T1 diagnostic:  0.00329142
                                                                       D1 diagnostic:  0.00966135

 Singles amplitudes (print threshold =  0.000E+00):

         I         SYM. A    A   T(IA)

         1         1         1      0.00020808
         1         1         2     -0.00008875
         1         1         3     -0.00010863
         2         1         1      0.00191852
         2         1         2     -0.00461268
         2         1         3     -0.00826758
         3         2         1     -0.00193030
         4         3         1     -0.00193030
         5         5         1      0.00064896
         5         5         2      0.00003642
         5         5         3      0.00001782
         5         5         4     -0.00014054
         6         6         1      0.00501995
         7         7         1      0.00501995

 Doubles amplitudes (print threshold =  0.000E+00):

         I         J         SYM. A    SYM. B    A         B      T(IJ, AB)

         1         1         1         1         1         1     -0.00029651
         1         1         1         1         1         2     -0.00046258
         1         1         1         1         1         3      0.00019949
         1         1         1         1         2         1     -0.00046258
         1         1         1         1         2         2     -0.00074034
         1         1         1         1         2         3     -0.00005056
         1         1         1         1         3         1      0.00019949
         1         1         1         1         3         2     -0.00005056
         1         1         1         1         3         3     -0.00068075
         1         1         2         2         1         1     -0.00054120
         1         1         3         3         1         1     -0.00054120
         1         1         5         5         1         1     -0.00099763
         1         1         5         5         1         2     -0.00031036
         1         1         5         5         1         3     -0.00035328
         1         1         5         5         1         4      0.00064912
         1         1         5         5         2         1     -0.00031036
         1         1         5         5         2         2     -0.00042802
         1         1         5         5         2         3      0.00029561
         1         1         5         5         2         4      0.00039538
         1         1         5         5         3         1     -0.00035328
         1         1         5         5         3         2      0.00029561
         1         1         5         5         3         3     -0.00075516
         1         1         5         5         3         4      0.00004697
         1         1         5         5         4         1      0.00064912
         1         1         5         5         4         2      0.00039538
         1         1         5         5         4         3      0.00004697
         1         1         5         5         4         4     -0.00050391
         1         1         6         6         1         1     -0.00048147
         1         1         7         7         1         1     -0.00048147
         2         1         1         1         1         1     -0.00068207
         2         1         1         1         1         2     -0.00062400
         2         1         1         1         1         3      0.00071162
         2         1         1         1         2         1     -0.00021585
         2         1         1         1         2         2     -0.00011802
         2         1         1         1         2         3      0.00036364
         2         1         1         1         3         1      0.00046966
         2         1         1         1         3         2      0.00053924
         2         1         1         1         3         3     -0.00019915
         2         1         2         2         1         1     -0.00055596
         2         1         3         3         1         1     -0.00055596
         2         1         5         5         1         1      0.00016166
         2         1         5         5         1         2      0.00032368
         2         1         5         5         1         3     -0.00007714
         2         1         5         5         1         4     -0.00019326
         2         1         5         5         2         1      0.00041253
         2         1         5         5         2         2     -0.00037714
         2         1         5         5         2         3      0.00078521
         2         1         5         5         2         4      0.00001921
         2         1         5         5         3         1     -0.00003173
         2         1         5         5         3         2      0.00050308
         2         1         5         5         3         3     -0.00070878
         2         1         5         5         3         4     -0.00016900
         2         1         5         5         4         1     -0.00036843
         2         1         5         5         4         2      0.00002407
         2         1         5         5         4         3     -0.00032321
         2         1         5         5         4         4      0.00015000
         2         1         6         6         1         1     -0.00047526
         2         1         7         7         1         1     -0.00047526
         2         2         1         1         1         1     -0.03711012
         2         2         1         1         1         2     -0.00363134
         2         2         1         1         1         3      0.00656065
         2         2         1         1         2         1     -0.00363134
         2         2         1         1         2         2     -0.00274418
         2         2         1         1         2         3     -0.00243564
         2         2         1         1         3         1      0.00656065
         2         2         1         1         3         2     -0.00243564
         2         2         1         1         3         3     -0.01012461
         2         2         2         2         1         1     -0.00536567
         2         2         3         3         1         1     -0.00536567
         2         2         5         5         1         1     -0.13795815
         2         2         5         5         1         2     -0.03936661
         2         2         5         5         1         3      0.00435520
         2         2         5         5         1         4      0.01640238
         2         2         5         5         2         1     -0.03936661
         2         2         5         5         2         2     -0.02521457
         2         2         5         5         2         3      0.00751615
         2         2         5         5         2         4      0.01004697
         2         2         5         5         3         1      0.00435520
         2         2         5         5         3         2      0.00751615
         2         2         5         5         3         3     -0.00410313
         2         2         5         5         3         4     -0.00276635
         2         2         5         5         4         1      0.01640238
         2         2         5         5         4         2      0.01004697
         2         2         5         5         4         3     -0.00276635
         2         2         5         5         4         4     -0.00695361
         2         2         6         6         1         1     -0.00354014
         2         2         7         7         1         1     -0.00354014
         3         3         1         1         1         1     -0.01429162
         3         3         1         1         1         2     -0.00091467
         3         3         1         1         1         3     -0.00027151
         3         3         1         1         2         1     -0.00091467
         3         3         1         1         2         2      0.00020320
         3         3         1         1         2         3     -0.00188738
         3         3         1         1         3         1     -0.00027151
         3         3         1         1         3         2     -0.00188738
         3         3         1         1         3         3     -0.00534625
         3         3         2         2         1         1     -0.02604780
         3         3         3         3         1         1     -0.00132947
         3         3         5         5         1         1     -1.44152070
         3         3         5         5         1         2     -0.03552417
         3         3         5         5         1         3     -0.01594112
         3         3         5         5         1         4      0.00952637
         3         3         5         5         2         1     -0.03552417
         3         3         5         5         2         2     -0.00481797
         3         3         5         5         2         3     -0.00009812
         3         3         5         5         2         4      0.00144375
         3         3         5         5         3         1     -0.01594112
         3         3         5         5         3         2     -0.00009812
         3         3         5         5         3         3      0.00100415
         3         3         5         5         3         4     -0.00084549
         3         3         5         5         4         1      0.00952637
         3         3         5         5         4         2      0.00144375
         3         3         5         5         4         3     -0.00084549
         3         3         5         5         4         4     -0.00169827
         3         3         6         6         1         1     -0.01735926
         3         3         7         7         1         1     -0.00056801
         4         4         1         1         1         1     -0.01429162
         4         4         1         1         1         2     -0.00091467
         4         4         1         1         1         3     -0.00027151
         4         4         1         1         2         1     -0.00091467
         4         4         1         1         2         2      0.00020320
         4         4         1         1         2         3     -0.00188738
         4         4         1         1         3         1     -0.00027151
         4         4         1         1         3         2     -0.00188738
         4         4         1         1         3         3     -0.00534625
         4         4         2         2         1         1     -0.00132947
         4         4         3         3         1         1     -0.02604780
         4         4         5         5         1         1     -1.44152070
         4         4         5         5         1         2     -0.03552417
         4         4         5         5         1         3     -0.01594112
         4         4         5         5         1         4      0.00952637
         4         4         5         5         2         1     -0.03552417
         4         4         5         5         2         2     -0.00481797
         4         4         5         5         2         3     -0.00009812
         4         4         5         5         2         4      0.00144375
         4         4         5         5         3         1     -0.01594112
         4         4         5         5         3         2     -0.00009812
         4         4         5         5         3         3      0.00100415
         4         4         5         5         3         4     -0.00084549
         4         4         5         5         4         1      0.00952637
         4         4         5         5         4         2      0.00144375
         4         4         5         5         4         3     -0.00084549
         4         4         5         5         4         4     -0.00169827
         4         4         6         6         1         1     -0.00056801
         4         4         7         7         1         1     -0.01735926
         5         5         1         1         1         1     -0.00028717
         5         5         1         1         1         2     -0.00045507
         5         5         1         1         1         3      0.00019168
         5         5         1         1         2         1     -0.00045507
         5         5         1         1         2         2     -0.00073407
         5         5         1         1         2         3     -0.00005699
         5         5         1         1         3         1      0.00019168
         5         5         1         1         3         2     -0.00005699
         5         5         1         1         3         3     -0.00067442
         5         5         2         2         1         1     -0.00053579
         5         5         3         3         1         1     -0.00053579
         5         5         5         5         1         1     -0.00100754
         5         5         5         5         1         2     -0.00030874
         5         5         5         5         1         3     -0.00035506
         5         5         5         5         1         4      0.00064852
         5         5         5         5         2         1     -0.00030874
         5         5         5         5         2         2     -0.00043499
         5         5         5         5         2         3      0.00030576
         5         5         5         5         2         4      0.00039763
         5         5         5         5         3         1     -0.00035506
         5         5         5         5         3         2      0.00030576
         5         5         5         5         3         3     -0.00076968
         5         5         5         5         3         4      0.00004359
         5         5         5         5         4         1      0.00064852
         5         5         5         5         4         2      0.00039763
         5         5         5         5         4         3      0.00004359
         5         5         5         5         4         4     -0.00050451
         5         5         6         6         1         1     -0.00048659
         5         5         7         7         1         1     -0.00048659
         6         6         1         1         1         1     -0.15925956
         6         6         1         1         1         2     -0.02372004
         6         6         1         1         1         3     -0.00357344
         6         6         1         1         2         1     -0.02372004
         6         6         1         1         2         2     -0.01678910
         6         6         1         1         2         3     -0.00491221
         6         6         1         1         3         1     -0.00357344
         6         6         1         1         3         2     -0.00491221
         6         6         1         1         3         3     -0.00516490
         6         6         2         2         1         1     -0.03406194
         6         6         3         3         1         1     -0.00562409
         6         6         5         5         1         1     11.16479893
         6         6         5         5         1         2     -0.01979286
         6         6         5         5         1         3     -0.00446117
         6         6         5         5         1         4     -0.01086393
         6         6         5         5         2         1     -0.01979286
         6         6         5         5         2         2     -0.03825414
         6         6         5         5         2         3      0.00375003
         6         6         5         5         2         4      0.00443124
         6         6         5         5         3         1     -0.00446117
         6         6         5         5         3         2      0.00375003
         6         6         5         5         3         3     -0.01296303
         6         6         5         5         3         4      0.00484196
         6         6         5         5         4         1     -0.01086393
         6         6         5         5         4         2      0.00443124
         6         6         5         5         4         3      0.00484196
         6         6         5         5         4         4     -0.00955342
         6         6         6         6         1         1     -0.03218933
         6         6         7         7         1         1     -0.00532099
         7         7         1         1         1         1     -0.15925956
         7         7         1         1         1         2     -0.02372004
         7         7         1         1         1         3     -0.00357344
         7         7         1         1         2         1     -0.02372004
         7         7         1         1         2         2     -0.01678910
         7         7         1         1         2         3     -0.00491221
         7         7         1         1         3         1     -0.00357344
         7         7         1         1         3         2     -0.00491221
         7         7         1         1         3         3     -0.00516490
         7         7         2         2         1         1     -0.00562409
         7         7         3         3         1         1     -0.03406194
         7         7         5         5         1         1     11.16479893
         7         7         5         5         1         2     -0.01979286
         7         7         5         5         1         3     -0.00446117
         7         7         5         5         1         4     -0.01086393
         7         7         5         5         2         1     -0.01979286
         7         7         5         5         2         2     -0.03825414
         7         7         5         5         2         3      0.00375003
         7         7         5         5         2         4      0.00443124
         7         7         5         5         3         1     -0.00446117
         7         7         5         5         3         2      0.00375003
         7         7         5         5         3         3     -0.01296303
         7         7         5         5         3         4      0.00484196
         7         7         5         5         4         1     -0.01086393
         7         7         5         5         4         2      0.00443124
         7         7         5         5         4         3      0.00484196
         7         7         5         5         4         4     -0.00955342
         7         7         6         6         1         1     -0.00532099
         7         7         7         7         1         1     -0.03218933
         3         1         1         2         1         1      0.00020053
         3         1         1         2         2         1      0.00043831
         3         1         1         2         3         1      0.00032804
         3         1         2         1         1         1     -0.00002186
         3         1         2         1         1         2     -0.00014516
         3         1         2         1         1         3     -0.00013456
         3         1         5         6         1         1      0.00072507
         3         1         5         6         2         1      0.00037942
         3         1         5         6         3         1      0.00016413
         3         1         5         6         4         1     -0.00036996
         3         1         6         5         1         1     -0.00009465
         3         1         6         5         1         2     -0.00008684
         3         1         6         5         1         3     -0.00006769
         3         1         6         5         1         4      0.00016287
         3         2         1         2         1         1      0.00255756
         3         2         1         2         2         1      0.00501708
         3         2         1         2         3         1      0.00609094
         3         2         2         1         1         1      0.00019559
         3         2         2         1         1         2      0.00944327
         3         2         2         1         1         3      0.01372617
         3         2         5         6         1         1      0.01139290
         3         2         5         6         2         1      0.00595585
         3         2         5         6         3         1      0.00082722
         3         2         5         6         4         1     -0.00460817
         3         2         6         5         1         1      0.02778315
         3         2         6         5         1         2      0.01394145
         3         2         6         5         1         3     -0.00039739
         3         2         6         5         1         4     -0.01020365
         6         5         1         2         1         1      0.00025525
         6         5         1         2         2         1      0.00050033
         6         5         1         2         3         1      0.00042686
         6         5         2         1         1         1      0.00003407
         6         5         2         1         1         2     -0.00009797
         6         5         2         1         1         3     -0.00020229
         6         5         5         6         1         1      0.00129328
         6         5         5         6         2         1      0.00043265
         6         5         5         6         3         1      0.00018481
         6         5         5         6         4         1     -0.00038865
         6         5         6         5         1         1     -0.00051979
         6         5         6         5         1         2     -0.00002831
         6         5         6         5         1         3     -0.00015504
         6         5         6         5         1         4      0.00016002
         4         1         1         3         1         1      0.00020053
         4         1         1         3         2         1      0.00043831
         4         1         1         3         3         1      0.00032804
         4         1         3         1         1         1     -0.00002186
         4         1         3         1         1         2     -0.00014516
         4         1         3         1         1         3     -0.00013456
         4         1         5         7         1         1      0.00072507
         4         1         5         7         2         1      0.00037942
         4         1         5         7         3         1      0.00016413
         4         1         5         7         4         1     -0.00036996
         4         1         7         5         1         1     -0.00009465
         4         1         7         5         1         2     -0.00008684
         4         1         7         5         1         3     -0.00006769
         4         1         7         5         1         4      0.00016287
         4         2         1         3         1         1      0.00255756
         4         2         1         3         2         1      0.00501708
         4         2         1         3         3         1      0.00609094
         4         2         3         1         1         1      0.00019559
         4         2         3         1         1         2      0.00944327
         4         2         3         1         1         3      0.01372617
         4         2         5         7         1         1      0.01139290
         4         2         5         7         2         1      0.00595585
         4         2         5         7         3         1      0.00082722
         4         2         5         7         4         1     -0.00460817
         4         2         7         5         1         1      0.02778315
         4         2         7         5         1         2      0.01394145
         4         2         7         5         1         3     -0.00039739
         4         2         7         5         1         4     -0.01020365
         7         5         1         3         1         1      0.00025525
         7         5         1         3         2         1      0.00050033
         7         5         1         3         3         1      0.00042686
         7         5         3         1         1         1      0.00003407
         7         5         3         1         1         2     -0.00009797
         7         5         3         1         1         3     -0.00020229
         7         5         5         7         1         1      0.00129328
         7         5         5         7         2         1      0.00043265
         7         5         5         7         3         1      0.00018481
         7         5         5         7         4         1     -0.00038865
         7         5         7         5         1         1     -0.00051979
         7         5         7         5         1         2     -0.00002831
         7         5         7         5         1         3     -0.00015504
         7         5         7         5         1         4      0.00016002
         4         3         2         3         1         1     -0.00427127
         4         3         3         2         1         1     -0.02044707
         4         3         6         7         1         1     -0.00314505
         4         3         7         6         1         1     -0.01364620
         7         6         2         3         1         1     -0.00475729
         7         6         3         2         1         1     -0.02368055
         7         6         6         7         1         1     -0.00416443
         7         6         7         6         1         1     -0.02270391
         5         1         1         5         1         1      0.00018715
         5         1         1         5         1         2     -0.00017954
         5         1         1         5         1         3      0.00052352
         5         1         1         5         1         4     -0.00005990
         5         1         1         5         2         1      0.00069040
         5         1         1         5         2         2      0.00000658
         5         1         1         5         2         3      0.00064020
         5         1         1         5         2         4     -0.00035722
         5         1         1         5         3         1      0.00051104
         5         1         1         5         3         2      0.00056865
         5         1         1         5         3         3     -0.00032406
         5         1         1         5         3         4     -0.00050921
         5         1         2         6         1         1      0.00051345
         5         1         3         7         1         1      0.00051345
         5         1         5         1         1         1      0.00018880
         5         1         5         1         1         2      0.00069178
         5         1         5         1         1         3      0.00051018
         5         1         5         1         2         1     -0.00018760
         5         1         5         1         2         2     -0.00000015
         5         1         5         1         2         3      0.00057546
         5         1         5         1         3         1      0.00053510
         5         1         5         1         3         2      0.00064994
         5         1         5         1         3         3     -0.00033355
         5         1         5         1         4         1     -0.00005722
         5         1         5         1         4         2     -0.00035503
         5         1         5         1         4         3     -0.00051153
         5         1         6         2         1         1      0.00051882
         5         1         7         3         1         1      0.00051882
         5         2         1         5         1         1     -0.00015477
         5         2         1         5         1         2     -0.00058058
         5         2         1         5         1         3      0.00050388
         5         2         1         5         1         4      0.00025311
         5         2         1         5         2         1     -0.00008568
         5         2         1         5         2         2     -0.00061510
         5         2         1         5         2         3      0.00045315
         5         2         1         5         2         4      0.00035210
         5         2         1         5         3         1     -0.00024626
         5         2         1         5         3         2      0.00038033
         5         2         1         5         3         3     -0.00049671
         5         2         1         5         3         4      0.00000109
         5         2         2         6         1         1      0.00051482
         5         2         3         7         1         1      0.00051482
         5         2         5         1         1         1     -0.00013013
         5         2         5         1         1         2     -0.00022788
         5         2         5         1         1         3     -0.00041353
         5         2         5         1         2         1     -0.00071316
         5         2         5         1         2         2     -0.00035963
         5         2         5         1         2         3      0.00021552
         5         2         5         1         3         1      0.00098575
         5         2         5         1         3         2      0.00032074
         5         2         5         1         3         3     -0.00060991
         5         2         5         1         4         1      0.00024952
         5         2         5         1         4         2      0.00021595
         5         2         5         1         4         3      0.00008824
         5         2         6         2         1         1      0.00051268
         5         2         7         3         1         1      0.00051268
         6         3         1         5         1         1      0.07414713
         6         3         1         5         1         2     -0.00350302
         6         3         1         5         1         3      0.00985018
         6         3         1         5         1         4      0.00090847
         6         3         1         5         2         1      0.01146151
         6         3         1         5         2         2      0.00462838
         6         3         1         5         2         3      0.00288534
         6         3         1         5         2         4     -0.00338858
         6         3         1         5         3         1      0.00673380
         6         3         1         5         3         2      0.00719324
         6         3         1         5         3         3     -0.00050892
         6         3         1         5         3         4     -0.00452822
         6         3         2         6         1         1      0.02409844
         6         3         3         7         1         1      0.00274038
         6         3         5         1         1         1      0.07342868
         6         3         5         1         1         2      0.01597537
         6         3         5         1         1         3     -0.00138605
         6         3         5         1         2         1     -0.00884887
         6         3         5         1         2         2      0.00378518
         6         3         5         1         2         3      0.00381329
         6         3         5         1         3         1      0.01009477
         6         3         5         1         3         2      0.00302741
         6         3         5         1         3         3      0.00005710
         6         3         5         1         4         1      0.00110391
         6         3         5         1         4         2     -0.00372471
         6         3         5         1         4         3     -0.00610646
         6         3         6         2         1         1      0.02796965
         6         3         7         3         1         1      0.00295867
         7         4         1         5         1         1      0.07414713
         7         4         1         5         1         2     -0.00350302
         7         4         1         5         1         3      0.00985018
         7         4         1         5         1         4      0.00090847
         7         4         1         5         2         1      0.01146151
         7         4         1         5         2         2      0.00462838
         7         4         1         5         2         3      0.00288534
         7         4         1         5         2         4     -0.00338858
         7         4         1         5         3         1      0.00673380
         7         4         1         5         3         2      0.00719324
         7         4         1         5         3         3     -0.00050892
         7         4         1         5         3         4     -0.00452822
         7         4         2         6         1         1      0.00274038
         7         4         3         7         1         1      0.02409844
         7         4         5         1         1         1      0.07342868
         7         4         5         1         1         2      0.01597537
         7         4         5         1         1         3     -0.00138605
         7         4         5         1         2         1     -0.00884887
         7         4         5         1         2         2      0.00378518
         7         4         5         1         2         3      0.00381329
         7         4         5         1         3         1      0.01009477
         7         4         5         1         3         2      0.00302741
         7         4         5         1         3         3      0.00005710
         7         4         5         1         4         1      0.00110391
         7         4         5         1         4         2     -0.00372471
         7         4         5         1         4         3     -0.00610646
         7         4         6         2         1         1      0.00295867
         7         4         7         3         1         1      0.02796965
         5         3         1         6         1         1      0.00004323
         5         3         1         6         2         1      0.00015271
         5         3         1         6         3         1      0.00011989
         5         3         2         5         1         1     -0.00079570
         5         3         2         5         1         2     -0.00039755
         5         3         2         5         1         3     -0.00018467
         5         3         2         5         1         4      0.00039515
         5         3         5         2         1         1      0.00005961
         5         3         5         2         2         1      0.00010192
         5         3         5         2         3         1      0.00005264
         5         3         5         2         4         1     -0.00016969
         5         3         6         1         1         1     -0.00017767
         5         3         6         1         1         2     -0.00040168
         5         3         6         1         1         3     -0.00030640
         6         1         1         6         1         1     -0.00022918
         6         1         1         6         2         1     -0.00046398
         6         1         1         6         3         1     -0.00040131
         6         1         2         5         1         1      0.00052580
         6         1         2         5         1         2      0.00015027
         6         1         2         5         1         3     -0.00003011
         6         1         2         5         1         4     -0.00020047
         6         1         5         2         1         1     -0.00134329
         6         1         5         2         2         1     -0.00045182
         6         1         5         2         3         1     -0.00020477
         6         1         5         2         4         1      0.00041011
         6         1         6         1         1         1      0.00012048
         6         1         6         1         1         2      0.00021937
         6         1         6         1         1         3      0.00008013
         6         2         1         6         1         1     -0.00004573
         6         2         1         6         2         1     -0.00468853
         6         2         1         6         3         1     -0.00451371
         6         2         2         5         1         1     -0.03871417
         6         2         2         5         1         2     -0.01712362
         6         2         2         5         1         3     -0.00094350
         6         2         2         5         1         4      0.01257728
         6         2         5         2         1         1     -0.01458719
         6         2         5         2         2         1     -0.00547181
         6         2         5         2         3         1     -0.00203056
         6         2         5         2         4         1      0.00610080
         6         2         6         1         1         1      0.00775117
         6         2         6         1         1         2     -0.00848447
         6         2         6         1         1         3     -0.01258913
         5         4         1         7         1         1      0.00004323
         5         4         1         7         2         1      0.00015271
         5         4         1         7         3         1      0.00011989
         5         4         3         5         1         1     -0.00079570
         5         4         3         5         1         2     -0.00039755
         5         4         3         5         1         3     -0.00018467
         5         4         3         5         1         4      0.00039515
         5         4         5         3         1         1      0.00005961
         5         4         5         3         2         1      0.00010192
         5         4         5         3         3         1      0.00005264
         5         4         5         3         4         1     -0.00016969
         5         4         7         1         1         1     -0.00017767
         5         4         7         1         1         2     -0.00040168
         5         4         7         1         1         3     -0.00030640
         7         1         1         7         1         1     -0.00022918
         7         1         1         7         2         1     -0.00046398
         7         1         1         7         3         1     -0.00040131
         7         1         3         5         1         1      0.00052580
         7         1         3         5         1         2      0.00015027
         7         1         3         5         1         3     -0.00003011
         7         1         3         5         1         4     -0.00020047
         7         1         5         3         1         1     -0.00134329
         7         1         5         3         2         1     -0.00045182
         7         1         5         3         3         1     -0.00020477
         7         1         5         3         4         1      0.00041011
         7         1         7         1         1         1      0.00012048
         7         1         7         1         1         2      0.00021937
         7         1         7         1         1         3      0.00008013
         7         2         1         7         1         1     -0.00004573
         7         2         1         7         2         1     -0.00468853
         7         2         1         7         3         1     -0.00451371
         7         2         3         5         1         1     -0.03871417
         7         2         3         5         1         2     -0.01712362
         7         2         3         5         1         3     -0.00094350
         7         2         3         5         1         4      0.01257728
         7         2         5         3         1         1     -0.01458719
         7         2         5         3         2         1     -0.00547181
         7         2         5         3         3         1     -0.00203056
         7         2         5         3         4         1      0.00610080
         7         2         7         1         1         1      0.00775117
         7         2         7         1         1         2     -0.00848447
         7         2         7         1         1         3     -0.01258913
         6         4         2         7         1         1      0.01760647
         6         4         3         6         1         1      0.00375159
         6         4         6         3         1         1      0.02093494
         6         4         7         2         1         1      0.00407605
         7         3         2         7         1         1      0.00375159
         7         3         3         6         1         1      0.01760647
         7         3         6         3         1         1      0.00407605
         7         3         7         2         1         1      0.02093494


 RESULTS
 =======

  Reference energy                   -107.380090941820

  Correlated core orbitals:             1.1       1.5
  Orbital energies:                   -15.7354  -15.7355

  CCSD core-core energy                -0.000863372971
  CCSD core-valence energy             -0.001920576342
  CCSD valence correlation energy      -9.504851787416

  CCSD singlet pair energy             -9.464205971474
  CCSD triplet pair energy             -0.042817757948
  CCSD correlation energy              -9.507635736729

 !CCSD total energy                  -116.887726678549

 Timing summary (sec):

 STEP                 CPU(USER)    SYS     CPU(TOT)    WALL
 CCSD iterations         0.01      0.00      0.01      0.01

 Program statistics:

 Available memory in ccsd:                39999004
 Min. memory needed in ccsd:                  3487
 Max. memory used in ccsd:                    3663
 Max. memory used in cckext:                 37024 ( 1 integral passes)



 **********************************************************************************************************************************
 DATASETS  * FILE   NREC   LENGTH (MB)   RECORD NAMES
              1      20       30.00       500      700      610      900      950      970     1000      129      960     1100   
                                          VAR     GEOM    BASINP   SYMINP    ZMAT    AOBASIS   BASIS     P2S    ABASIS      S 
                                         1400     1410     1200     1210     1080     1600     1650     1300     1700     1380   
                                           T        V       H0       H01     AOSYM     SMH    MOLCAS    ERIS     OPER     JKOP   

              3       5       14.77       500      610      700     1000     2100   
                                          VAR    BASINP    GEOM     BASIS     RHF  

 PROGRAMS   *        TOTAL      CCSD       INT   RESTART
 CPU TIMES  *         0.34      0.08      0.14      0.02
 REAL TIME  *         0.53 SEC
 DISK USED  *        49.44 MB
 **********************************************************************************************************************************
 Molecular orbitals read from record     2100.3  Type=RHF/CANONICAL (state 1.1)
 Occupation numbers read from record     2100.3  Type=RHF/RHF (state 1.1)
 Orbital energies read from record       2100.3  Type=RHF/CANONICAL (state 1.1)
 Redundancy group numbers read from rec  2100.3  Type=RHF/RHF (state 1.1)

 CCSD/6-31G energy=   -116.887726678549

            CCSD
   -116.88772668
 **********************************************************************************************************************************
 Molpro calculation terminated
