
 Primary working directories    : /scr/yuriaoto/job.022816/molpro.JUe2NrhdMi
 Secondary working directories  : /scr/yuriaoto/job.022816/molpro.JUe2NrhdMi
 Wavefunction directory         : /scr/yuriaoto/job.022816/
 Main file repository           : /scr/yuriaoto/job.022816/molpro.JUe2NrhdMi/

 id        : yuriaoto

 Nodes             nprocs
 t-rex.ufabc.int.br    1

 Using customized tuning parameters: mindgm=8; mindgv=16; mindgc=1; mindgr=1; noblas=0; minvec=7
 default implementation of scratch files=df  


 Variables initialized (933), CPU time= 0.00 sec
 ***,
 memory,40,m
 gprint,orbital,basis,civector
 gthresh,thrprint=0,printci=0.0
 file,3,wfu.dat,old
 
 {cisd,CC_NORM_MAX=200.0
 thresh,printci=0.0,ENERGY=1.0E+10,COEFF=1.0E+12
 print,ref=1
 occ,2,1,1,0, 1,1,1,0
 core,0
 wf,14,1,0;
 }
 
 Commands  initialized (760), CPU time= 0.01 sec, 617 directives.
 Default parameters read. Elapsed time= 0.05 sec

 Checking input...
 Passed
1


                                         ***  PROGRAM SYSTEM MOLPRO  ***
                                       Copyright, TTI GmbH Stuttgart, 2015
                                    Version 2019.2 linked Abr  7 2019 15:10:35


 **********************************************************************************************************************************
 LABEL *                                                                                 
  64 bit serial version                                                                  DATE: 23-Mar-20          TIME: 14:37:11  
 **********************************************************************************************************************************

 SHA1:             3a8a58c585c929645742fb5a1b7541a4ad1da699
 **********************************************************************************************************************************


 THRESHOLDS:

 ZERO    =  1.00D-12  ONEINT  =  1.00D-12  TWOINT  =  1.00D-11  PREFAC  =  1.00D-14  XXXXXX  =  1.00D-09  EORDER  =  1.00D-04
 ENERGY  =  0.00D+00  ETEST   =  0.00D+00  EDENS   =  0.00D+00  THRDEDEF=  1.00D-06  GRADIENT=  1.00D-02  STEP    =  1.00D-03
 ORBITAL =  1.00D-05  CIVEC   =  1.00D-05  COEFF   =  1.00D-04  PRINTCI =  0.00D+00  PUNCHCI =  9.90D+01  OPTGRAD =  3.00D-04
 OPTENERG=  1.00D-06  OPTSTEP =  3.00D-04  THRGRAD =  1.00D-10  COMPRESS=  1.00D-11  VARMIN  =  1.00D-07  VARMAX  =  1.00D-03
 THRDOUB =  0.00D+00  THRDIV  =  1.00D-05  THRRED  =  1.00D-07  THRPSP  =  1.00D+00  THRDC   =  1.00D-10  THRCS   =  1.00D-10
 THRNRM  =  1.00D-08  THREQ   =  0.00D+00  THRDE   =  1.00D+00  THRREF  =  1.00D-05  SPARFAC =  1.00D+00  THRDLP  =  1.00D-07
 THRDIA  =  1.00D-10  THRDLS  =  1.00D-07  THRGPS  =  0.00D+00  THRKEX  =  0.00D+00  THRDIS  =  2.00D-01  THRVAR  =  1.00D-10
 THRLOC  =  1.00D-06  THRGAP  =  1.00D-06  THRLOCT = -1.00D+00  THRGAPT = -1.00D+00  THRORB  =  1.00D-06  THRMLTP =  0.00D+00
 THRCPQCI=  1.00D-10  KEXTA   =  0.00D+00  THRCOARS=  0.00D+00  SYMTOL  =  1.00D-06  GRADTOL =  1.00D-06  THROVL  =  1.00D-08
 THRORTH =  1.00D-08  GRID    =  1.00D-06  GRIDMAX =  1.00D-03  DTMAX   =  0.00D+00  THROCCDE=  1.00D-01  THROCCDE=  1.00D-01
 THRPRINT=  0.00D+00


 Variable memory set to   40000000 words,  buffer space 



 Permanent file  3  wfu.dat  assigned.  Implementation=df    Size= 14.08 MB


 PROGRAM * RESTART 


 Reading variables from file 3

 _FNUC           =      0.00000000
 _BASIS          =    6-31G
 _NELEC          =     14.00000000
 _PROGRAM        =    RHF-SCF
 _DMX_SCF        =      0.00000000
 _DMY_SCF        =      0.00000000
 _DMZ_SCF        =      0.00000000
 _HOMO           =      1.60000000
 _EHOMO          =     -0.38392134
 _LUMO           =      2.50000000
 _ELUMO          =     -0.46667442
 _ENERGY         =   -107.38009094
 _ENERGY_METHOD  =    RHF
 _ENERGY_BASIS   =    6-31G
 _ENUC           =     16.33333333
 _EPS1(1:5)      =    -15.73544598    -1.04733051    -0.07940041     0.91426533     1.18245798
 _EPS2(1:2)      =     -0.54144768     0.87574288
 _EPS3(1:2)      =     -0.54144768     0.87574288
 _EPS5(1:5)      =    -15.73552654    -0.46667442     0.32356143     0.86926886     1.36910071
 _EPS6(1:2)      =     -0.38392134     0.94896024
 _EPS7(1:2)      =     -0.38392134     0.94896024
 _IPROC_MPP      =      0.00000000
 _IPROC_MPPX     =      0.00000000
 _ORBITAL        =   2100.30000000
 _STATUS         =      1.00000000
 _LASTORB        =    RHF
 _OUTPUT         =    /scr/yuriaoto/job.022813/RHF.xml
 _PGROUP         =    D2h 
 _TIME           =    14:34:42
 R               =      3.00000000

 Geometry written to block  1 of record 700


 **********************************************************************************************************************************
 DATASETS  * FILE   NREC   LENGTH (MB)   RECORD NAMES
              3       5       14.77       500      610      700     1000     2100   
                                          VAR    BASINP    GEOM     BASIS     RHF  

 PROGRAMS   *        TOTAL   RESTART
 CPU TIMES  *         0.11      0.01
 REAL TIME  *         0.13 SEC
 DISK USED  *        26.84 MB
 **********************************************************************************************************************************


 Recomputing integrals since basis changed


 Using spherical harmonics

 Library entry N      S 6-31G                selected for orbital group  1
 Library entry N      P 6-31G                selected for orbital group  1


 PROGRAM * SEWARD (Integral evaluation for generally contracted gaussian basis sets)     Author: Roland Lindh, 1990

 Geometry written to block  1 of record 700

 Orientation using atomic masses  
 Molecule type: Linear
 User-specified symmetry elements: X,Y,Z
 Symmetry elements: X,Y,Z
 Rotational constants:      28.6329822     28.6329822      0.0000000 GHz  (calculated with average atomic masses)

 Point group  D2h 



 ATOMIC COORDINATES

 NR  ATOM    CHARGE       X              Y              Z

   1  N1      7.00    0.000000000    0.000000000   -1.500000000
   2  N2      7.00    0.000000000    0.000000000    1.500000000

 Bond lengths in Bohr (Angstrom)

 1-2  3.000000000
     ( 1.587531633)


 BASIS DATA

   Nr Sym  Nuc  Type         Exponents   Contraction coefficients

    1.1 Ag    1  1s        4173.511500     0.001835
              2  1s         627.457910     0.013995
                            142.902090     0.068587
                             40.234329     0.232241
                             12.820213     0.469070
                              4.390437     0.360455
    2.1 Ag    1  1s          11.626362    -0.114961
              2  1s           2.716280    -0.169117
                              0.772218     1.145852
    3.1 Ag    1  1s           0.212032     1.000000
              2  1s    
    4.1 Ag    1  2pz         11.626362     0.067580
              2 -2pz          2.716280     0.323907
                              0.772218     0.740895
    5.1 Ag    1  2pz          0.212032     1.000000
              2 -2pz   
    1.2 B3u   1  2px         11.626362     0.067580
              2  2px          2.716280     0.323907
                              0.772218     0.740895
    2.2 B3u   1  2px          0.212032     1.000000
              2  2px   
    1.3 B2u   1  2py         11.626362     0.067580
              2  2py          2.716280     0.323907
                              0.772218     0.740895
    2.3 B2u   1  2py          0.212032     1.000000
              2  2py   
    1.5 B1u   1  1s        4173.511500     0.001835
              2 -1s         627.457910     0.013995
                            142.902090     0.068587
                             40.234329     0.232241
                             12.820213     0.469070
                              4.390437     0.360455
    2.5 B1u   1  1s          11.626362    -0.114961
              2 -1s           2.716280    -0.169117
                              0.772218     1.145852
    3.5 B1u   1  1s           0.212032     1.000000
              2 -1s    
    4.5 B1u   1  2pz         11.626362     0.067580
              2  2pz          2.716280     0.323907
                              0.772218     0.740895
    5.5 B1u   1  2pz          0.212032     1.000000
              2  2pz   
    1.6 B2g   1  2px         11.626362     0.067580
              2 -2px          2.716280     0.323907
                              0.772218     0.740895
    2.6 B2g   1  2px          0.212032     1.000000
              2 -2px   
    1.7 B3g   1  2py         11.626362     0.067580
              2 -2py          2.716280     0.323907
                              0.772218     0.740895
    2.7 B3g   1  2py          0.212032     1.000000
              2 -2py   

 NUCLEAR CHARGE:                   14
 NUMBER OF PRIMITIVE AOS:          44
 NUMBER OF SYMMETRY AOS:           44
 NUMBER OF CONTRACTIONS:           18   (    5Ag  +    2B3u +    2B2u +    0B1g +    5B1u +    2B2g +    2B3g +    0Au  )
 NUMBER OF CORE ORBITALS:           2   (    1Ag  +    0B3u +    0B2u +    0B1g +    1B1u +    0B2g +    0B3g +    0Au  )
 NUMBER OF VALENCE ORBITALS:        8   (    2Ag  +    1B3u +    1B2u +    0B1g +    2B1u +    1B2g +    1B3g +    0Au  )


 NUCLEAR REPULSION ENERGY   16.33333333

 Eigenvalues of metric

         1 0.238E+00 0.415E+00 0.926E+00 0.155E+01 0.276E+01
         2 0.544E+00 0.186E+01
         3 0.544E+00 0.186E+01
         5 0.420E-01 0.342E+00 0.806E+00 0.100E+01 0.192E+01
         6 0.352E+00 0.124E+01
         7 0.352E+00 0.124E+01


 Contracted 2-electron integrals neglected if value below      1.0D-11
 AO integral compression algorithm  1   Integral accuracy      1.0D-11

     0.262 MB (compressed) written to integral file (100.0%)


 NUMBER OF SORTED TWO-ELECTRON INTEGRALS:       2829.     BUFFER LENGTH:  32768
 NUMBER OF SEGMENTS:   1  SEGMENT LENGTH:       2829      RECORD LENGTH: 524288

 Memory used in sort:       0.56 MW

 SORT1 READ        8184. AND WROTE        2829. INTEGRALS IN      1 RECORDS. CPU TIME:     0.00 SEC, REAL TIME:     0.00 SEC
 SORT2 READ        2829. AND WROTE        2829. INTEGRALS IN      1 RECORDS. CPU TIME:     0.00 SEC, REAL TIME:     0.01 SEC

 FILE SIZES:   FILE 1:    30.2 MBYTE,  FILE 4:     4.2 MBYTE,   TOTAL:     34.4 MBYTE

 OPERATOR DM      FOR CENTER  0  COORDINATES:    0.000000    0.000000    0.000000


 **********************************************************************************************************************************
 DATASETS  * FILE   NREC   LENGTH (MB)   RECORD NAMES
              1      19       29.97       500      700      610      900      950      970     1000      129      960     1100   
                                          VAR     GEOM    BASINP   SYMINP    ZMAT    AOBASIS   BASIS     P2S    ABASIS      S 
                                         1400     1410     1200     1210     1080     1600     1650     1300     1700   
                                           T        V       H0       H01     AOSYM     SMH    MOLCAS    ERIS     OPER   

              3       5       14.77       500      610      700     1000     2100   
                                          VAR    BASINP    GEOM     BASIS     RHF  

 PROGRAMS   *        TOTAL       INT   RESTART
 CPU TIMES  *         0.22      0.10      0.01
 REAL TIME  *         0.38 SEC
 DISK USED  *        49.44 MB
 **********************************************************************************************************************************


 PROGRAM * CISD (Closed-shell CI(SD))     Authors: C. Hampel, H.-J. Werner, 1991, M. Deegan, P.J. Knowles, 1992


 Input parameters for THRESH:

 ENERGY   =    1.00D+10
 COEFF    =    1.00D+12
 PRINTCI  =    0.000000
 THRPRINT =    0.000000

 Convergence thresholds:  THRVAR = 1.00D+24  THRDEN = 1.00D+10

 Number of closed-shell orbitals:   7 (   2   1   1   0   1   1   1 )
 Number of external orbitals:      11 (   3   1   1   0   4   1   1 )

 Molecular orbitals read from record     2100.3  Type=RHF/CANONICAL (state 1.1)

 Number of N-1 electron functions:               7
 Number of N-2 electron functions:              28
 Number of singly external CSFs:                14
 Number of doubly external CSFs:               465
 Total number of CSFs:                         480

 Length of J-op  integral file:               0.00 MB
 Length of K-op  integral file:               0.04 MB

 Integral transformation finished. Total CPU:   0.00 sec, npass=  1  Memory used:   0.07 MW

 Reference energy:                   -107.38009094

 MP2 singlet pair energy:              -0.08874089
 MP2 triplet pair energy:              -0.04594021
 MP2 correlation energy:               -0.13468110
 MP2 total energy:                   -107.51477205

 SCS-MP2 correlation energy:           -0.13507409   (PS=  1.200000  PT=  0.333333)
 SCS-MP2 total energy:               -107.51516503

 ITER.      SQ.NORM     CORR.ENERGY   TOTAL ENERGY   ENERGY CHANGE        DEN1      VAR(S)    VAR(P)  DIIS     TIME  TIME/IT
   1    223.42624421    -8.07660264  -115.45669358    -7.94192153     1.40786315  0.30D-03  0.20D+03  0  0     0.01     0.00


 ! DIPOLE MOMENTS:                      0.00000000     0.00000000     0.00000000



 Norm of t1 vector:      0.01741654      S-energy:    -0.00061201      T1 diagnostic:  0.00329142

 Singles amplitudes (print threshold =  0.000E+00):

         I         SYM. A    A   T(IA)

         1         1         1      0.00020808
         1         1         2     -0.00008875
         1         1         3     -0.00010863
         2         1         1      0.00191852
         2         1         2     -0.00461268
         2         1         3     -0.00826758
         3         2         1     -0.00193030
         4         3         1     -0.00193030
         5         5         1      0.00064896
         5         5         2      0.00003642
         5         5         3      0.00001782
         5         5         4     -0.00014054
         6         6         1      0.00501995
         7         7         1      0.00501995

 Doubles amplitudes (print threshold =  0.000E+00):

         I         J         SYM. A    SYM. B    A         B      T(IJ, AB)

         1         1         1         1         1         1     -0.00029377
         1         1         1         1         1         2     -0.00046072
         1         1         1         1         1         3      0.00019866
         1         1         1         1         2         1     -0.00046072
         1         1         1         1         2         2     -0.00073717
         1         1         1         1         2         3     -0.00005030
         1         1         1         1         3         1      0.00019866
         1         1         1         1         3         2     -0.00005030
         1         1         1         1         3         3     -0.00067785
         1         1         2         2         1         1     -0.00053908
         1         1         3         3         1         1     -0.00053908
         1         1         5         5         1         1     -0.00099564
         1         1         5         5         1         2     -0.00030882
         1         1         5         5         1         3     -0.00035166
         1         1         5         5         1         4      0.00064721
         1         1         5         5         2         1     -0.00030882
         1         1         5         5         2         2     -0.00042626
         1         1         5         5         2         3      0.00029410
         1         1         5         5         2         4      0.00039443
         1         1         5         5         3         1     -0.00035166
         1         1         5         5         3         2      0.00029410
         1         1         5         5         3         3     -0.00075193
         1         1         5         5         3         4      0.00004681
         1         1         5         5         4         1      0.00064721
         1         1         5         5         4         2      0.00039443
         1         1         5         5         4         3      0.00004681
         1         1         5         5         4         4     -0.00050213
         1         1         6         6         1         1     -0.00047944
         1         1         7         7         1         1     -0.00047944
         2         1         1         1         1         1     -0.00067749
         2         1         1         1         1         2     -0.00062052
         2         1         1         1         1         3      0.00070929
         2         1         1         1         2         1     -0.00021505
         2         1         1         1         2         2     -0.00011776
         2         1         1         1         2         3      0.00036218
         2         1         1         1         3         1      0.00046734
         2         1         1         1         3         2      0.00053633
         2         1         1         1         3         3     -0.00019846
         2         1         2         2         1         1     -0.00055491
         2         1         3         3         1         1     -0.00055491
         2         1         5         5         1         1      0.00015498
         2         1         5         5         1         2      0.00032101
         2         1         5         5         1         3     -0.00007829
         2         1         5         5         1         4     -0.00018889
         2         1         5         5         2         1      0.00040971
         2         1         5         5         2         2     -0.00037544
         2         1         5         5         2         3      0.00078129
         2         1         5         5         2         4      0.00002010
         2         1         5         5         3         1     -0.00003059
         2         1         5         5         3         2      0.00050116
         2         1         5         5         3         3     -0.00070561
         2         1         5         5         3         4     -0.00016864
         2         1         5         5         4         1     -0.00036603
         2         1         5         5         4         2      0.00002395
         2         1         5         5         4         3     -0.00032167
         2         1         5         5         4         4      0.00014914
         2         1         6         6         1         1     -0.00047393
         2         1         7         7         1         1     -0.00047393
         2         2         1         1         1         1     -0.03577514
         2         2         1         1         1         2     -0.00356071
         2         2         1         1         1         3      0.00642877
         2         2         1         1         2         1     -0.00356071
         2         2         1         1         2         2     -0.00259501
         2         2         1         1         2         3     -0.00234166
         2         2         1         1         3         1      0.00642877
         2         2         1         1         3         2     -0.00234166
         2         2         1         1         3         3     -0.00989307
         2         2         2         2         1         1     -0.00507063
         2         2         3         3         1         1     -0.00507063
         2         2         5         5         1         1     -0.13133000
         2         2         5         5         1         2     -0.03772344
         2         2         5         5         1         3      0.00427978
         2         2         5         5         1         4      0.01589408
         2         2         5         5         2         1     -0.03772344
         2         2         5         5         2         2     -0.02464980
         2         2         5         5         2         3      0.00735219
         2         2         5         5         2         4      0.00988915
         2         2         5         5         3         1      0.00427978
         2         2         5         5         3         2      0.00735219
         2         2         5         5         3         3     -0.00396678
         2         2         5         5         3         4     -0.00274246
         2         2         5         5         4         1      0.01589408
         2         2         5         5         4         2      0.00988915
         2         2         5         5         4         3     -0.00274246
         2         2         5         5         4         4     -0.00679668
         2         2         6         6         1         1     -0.00334460
         2         2         7         7         1         1     -0.00334460
         3         3         1         1         1         1     -0.00821866
         3         3         1         1         1         2     -0.00045420
         3         3         1         1         1         3     -0.00035181
         3         3         1         1         2         1     -0.00045420
         3         3         1         1         2         2      0.00059640
         3         3         1         1         2         3     -0.00172530
         3         3         1         1         3         1     -0.00035181
         3         3         1         1         3         2     -0.00172530
         3         3         1         1         3         3     -0.00492863
         3         3         2         2         1         1     -0.02494973
         3         3         3         3         1         1     -0.00063274
         3         3         5         5         1         1     -1.37657375
         3         3         5         5         1         2     -0.03658180
         3         3         5         5         1         3     -0.01556478
         3         3         5         5         1         4      0.01033784
         3         3         5         5         2         1     -0.03658180
         3         3         5         5         2         2     -0.00336750
         3         3         5         5         2         3     -0.00046111
         3         3         5         5         2         4      0.00125241
         3         3         5         5         3         1     -0.01556478
         3         3         5         5         3         2     -0.00046111
         3         3         5         5         3         3      0.00135925
         3         3         5         5         3         4     -0.00084799
         3         3         5         5         4         1      0.01033784
         3         3         5         5         4         2      0.00125241
         3         3         5         5         4         3     -0.00084799
         3         3         5         5         4         4     -0.00139603
         3         3         6         6         1         1     -0.01624185
         3         3         7         7         1         1     -0.00002043
         4         4         1         1         1         1     -0.00821866
         4         4         1         1         1         2     -0.00045420
         4         4         1         1         1         3     -0.00035181
         4         4         1         1         2         1     -0.00045420
         4         4         1         1         2         2      0.00059640
         4         4         1         1         2         3     -0.00172530
         4         4         1         1         3         1     -0.00035181
         4         4         1         1         3         2     -0.00172530
         4         4         1         1         3         3     -0.00492863
         4         4         2         2         1         1     -0.00063274
         4         4         3         3         1         1     -0.02494973
         4         4         5         5         1         1     -1.37657375
         4         4         5         5         1         2     -0.03658180
         4         4         5         5         1         3     -0.01556478
         4         4         5         5         1         4      0.01033784
         4         4         5         5         2         1     -0.03658180
         4         4         5         5         2         2     -0.00336750
         4         4         5         5         2         3     -0.00046111
         4         4         5         5         2         4      0.00125241
         4         4         5         5         3         1     -0.01556478
         4         4         5         5         3         2     -0.00046111
         4         4         5         5         3         3      0.00135925
         4         4         5         5         3         4     -0.00084799
         4         4         5         5         4         1      0.01033784
         4         4         5         5         4         2      0.00125241
         4         4         5         5         4         3     -0.00084799
         4         4         5         5         4         4     -0.00139603
         4         4         6         6         1         1     -0.00002043
         4         4         7         7         1         1     -0.01624185
         5         5         1         1         1         1     -0.00028449
         5         5         1         1         1         2     -0.00045325
         5         5         1         1         1         3      0.00019090
         5         5         1         1         2         1     -0.00045325
         5         5         1         1         2         2     -0.00073093
         5         5         1         1         2         3     -0.00005669
         5         5         1         1         3         1      0.00019090
         5         5         1         1         3         2     -0.00005669
         5         5         1         1         3         3     -0.00067154
         5         5         2         2         1         1     -0.00053370
         5         5         3         3         1         1     -0.00053370
         5         5         5         5         1         1     -0.00100555
         5         5         5         5         1         2     -0.00030720
         5         5         5         5         1         3     -0.00035342
         5         5         5         5         1         4      0.00064661
         5         5         5         5         2         1     -0.00030720
         5         5         5         5         2         2     -0.00043322
         5         5         5         5         2         3      0.00030423
         5         5         5         5         2         4      0.00039668
         5         5         5         5         3         1     -0.00035342
         5         5         5         5         3         2      0.00030423
         5         5         5         5         3         3     -0.00076640
         5         5         5         5         3         4      0.00004344
         5         5         5         5         4         1      0.00064661
         5         5         5         5         4         2      0.00039668
         5         5         5         5         4         3      0.00004344
         5         5         5         5         4         4     -0.00050272
         5         5         6         6         1         1     -0.00048456
         5         5         7         7         1         1     -0.00048456
         6         6         1         1         1         1     -0.15929898
         6         6         1         1         1         2     -0.02370289
         6         6         1         1         1         3     -0.00339417
         6         6         1         1         2         1     -0.02370289
         6         6         1         1         2         2     -0.01676291
         6         6         1         1         2         3     -0.00493388
         6         6         1         1         3         1     -0.00339417
         6         6         1         1         3         2     -0.00493388
         6         6         1         1         3         3     -0.00533226
         6         6         2         2         1         1     -0.03246576
         6         6         3         3         1         1     -0.00618913
         6         6         5         5         1         1     10.45150465
         6         6         5         5         1         2     -0.01257988
         6         6         5         5         1         3     -0.00411469
         6         6         5         5         1         4     -0.01186797
         6         6         5         5         2         1     -0.01257988
         6         6         5         5         2         2     -0.03944210
         6         6         5         5         2         3      0.00384476
         6         6         5         5         2         4      0.00472393
         6         6         5         5         3         1     -0.00411469
         6         6         5         5         3         2      0.00384476
         6         6         5         5         3         3     -0.01298653
         6         6         5         5         3         4      0.00478843
         6         6         5         5         4         1     -0.01186797
         6         6         5         5         4         2      0.00472393
         6         6         5         5         4         3      0.00478843
         6         6         5         5         4         4     -0.00959533
         6         6         6         6         1         1     -0.03123091
         6         6         7         7         1         1     -0.00573241
         7         7         1         1         1         1     -0.15929898
         7         7         1         1         1         2     -0.02370289
         7         7         1         1         1         3     -0.00339417
         7         7         1         1         2         1     -0.02370289
         7         7         1         1         2         2     -0.01676291
         7         7         1         1         2         3     -0.00493388
         7         7         1         1         3         1     -0.00339417
         7         7         1         1         3         2     -0.00493388
         7         7         1         1         3         3     -0.00533226
         7         7         2         2         1         1     -0.00618913
         7         7         3         3         1         1     -0.03246576
         7         7         5         5         1         1     10.45150465
         7         7         5         5         1         2     -0.01257988
         7         7         5         5         1         3     -0.00411469
         7         7         5         5         1         4     -0.01186797
         7         7         5         5         2         1     -0.01257988
         7         7         5         5         2         2     -0.03944210
         7         7         5         5         2         3      0.00384476
         7         7         5         5         2         4      0.00472393
         7         7         5         5         3         1     -0.00411469
         7         7         5         5         3         2      0.00384476
         7         7         5         5         3         3     -0.01298653
         7         7         5         5         3         4      0.00478843
         7         7         5         5         4         1     -0.01186797
         7         7         5         5         4         2      0.00472393
         7         7         5         5         4         3      0.00478843
         7         7         5         5         4         4     -0.00959533
         7         7         6         6         1         1     -0.00573241
         7         7         7         7         1         1     -0.03123091
         3         1         1         2         1         1      0.00019961
         3         1         1         2         2         1      0.00043657
         3         1         1         2         3         1      0.00032685
         3         1         2         1         1         1     -0.00002063
         3         1         2         1         1         2     -0.00014290
         3         1         2         1         1         3     -0.00013342
         3         1         5         6         1         1      0.00071946
         3         1         5         6         2         1      0.00037882
         3         1         5         6         3         1      0.00016346
         3         1         5         6         4         1     -0.00036895
         3         1         6         5         1         1     -0.00009051
         3         1         6         5         1         2     -0.00008589
         3         1         6         5         1         3     -0.00006634
         3         1         6         5         1         4      0.00016079
         3         2         1         2         1         1      0.00251834
         3         2         1         2         2         1      0.00498260
         3         2         1         2         3         1      0.00604710
         3         2         2         1         1         1      0.00023382
         3         2         2         1         1         2      0.00929805
         3         2         2         1         1         3      0.01351523
         3         2         5         6         1         1      0.01111144
         3         2         5         6         2         1      0.00593866
         3         2         5         6         3         1      0.00082550
         3         2         5         6         4         1     -0.00458487
         3         2         6         5         1         1      0.02600917
         3         2         6         5         1         2      0.01363695
         3         2         6         5         1         3     -0.00035958
         3         2         6         5         1         4     -0.01003085
         6         5         1         2         1         1      0.00025303
         6         5         1         2         2         1      0.00049724
         6         5         1         2         3         1      0.00042424
         6         5         2         1         1         1      0.00003546
         6         5         2         1         1         2     -0.00009401
         6         5         2         1         1         3     -0.00019881
         6         5         5         6         1         1      0.00128998
         6         5         5         6         2         1      0.00043086
         6         5         5         6         3         1      0.00018361
         6         5         5         6         4         1     -0.00038680
         6         5         6         5         1         1     -0.00051486
         6         5         6         5         1         2     -0.00002756
         6         5         6         5         1         3     -0.00015251
         6         5         6         5         1         4      0.00015749
         4         1         1         3         1         1      0.00019961
         4         1         1         3         2         1      0.00043657
         4         1         1         3         3         1      0.00032685
         4         1         3         1         1         1     -0.00002063
         4         1         3         1         1         2     -0.00014290
         4         1         3         1         1         3     -0.00013342
         4         1         5         7         1         1      0.00071946
         4         1         5         7         2         1      0.00037882
         4         1         5         7         3         1      0.00016346
         4         1         5         7         4         1     -0.00036895
         4         1         7         5         1         1     -0.00009051
         4         1         7         5         1         2     -0.00008589
         4         1         7         5         1         3     -0.00006634
         4         1         7         5         1         4      0.00016079
         4         2         1         3         1         1      0.00251834
         4         2         1         3         2         1      0.00498260
         4         2         1         3         3         1      0.00604710
         4         2         3         1         1         1      0.00023382
         4         2         3         1         1         2      0.00929805
         4         2         3         1         1         3      0.01351523
         4         2         5         7         1         1      0.01111144
         4         2         5         7         2         1      0.00593866
         4         2         5         7         3         1      0.00082550
         4         2         5         7         4         1     -0.00458487
         4         2         7         5         1         1      0.02600917
         4         2         7         5         1         2      0.01363695
         4         2         7         5         1         3     -0.00035958
         4         2         7         5         1         4     -0.01003085
         7         5         1         3         1         1      0.00025303
         7         5         1         3         2         1      0.00049724
         7         5         1         3         3         1      0.00042424
         7         5         3         1         1         1      0.00003546
         7         5         3         1         1         2     -0.00009401
         7         5         3         1         1         3     -0.00019881
         7         5         5         7         1         1      0.00128998
         7         5         5         7         2         1      0.00043086
         7         5         5         7         3         1      0.00018361
         7         5         5         7         4         1     -0.00038680
         7         5         7         5         1         1     -0.00051486
         7         5         7         5         1         2     -0.00002756
         7         5         7         5         1         3     -0.00015251
         7         5         7         5         1         4      0.00015749
         4         3         2         3         1         1     -0.00423095
         4         3         3         2         1         1     -0.02008605
         4         3         6         7         1         1     -0.00309809
         4         3         7         6         1         1     -0.01312332
         7         6         2         3         1         1     -0.00457936
         7         6         3         2         1         1     -0.02169727
         7         6         6         7         1         1     -0.00401260
         7         6         7         6         1         1     -0.02148590
         5         1         1         5         1         1      0.00018491
         5         1         1         5         1         2     -0.00017857
         5         1         1         5         1         3      0.00052151
         5         1         1         5         1         4     -0.00005976
         5         1         1         5         2         1      0.00068776
         5         1         1         5         2         2      0.00000703
         5         1         1         5         2         3      0.00063758
         5         1         1         5         2         4     -0.00035594
         5         1         1         5         3         1      0.00050964
         5         1         1         5         3         2      0.00056701
         5         1         1         5         3         3     -0.00032280
         5         1         1         5         3         4     -0.00050742
         5         1         2         6         1         1      0.00051159
         5         1         3         7         1         1      0.00051159
         5         1         5         1         1         1      0.00018654
         5         1         5         1         1         2      0.00068913
         5         1         5         1         1         3      0.00050880
         5         1         5         1         2         1     -0.00018661
         5         1         5         1         2         2      0.00000033
         5         1         5         1         2         3      0.00057381
         5         1         5         1         3         1      0.00053304
         5         1         5         1         3         2      0.00064728
         5         1         5         1         3         3     -0.00033226
         5         1         5         1         4         1     -0.00005709
         5         1         5         1         4         2     -0.00035375
         5         1         5         1         4         3     -0.00050973
         5         1         6         2         1         1      0.00051695
         5         1         7         3         1         1      0.00051695
         5         2         1         5         1         1     -0.00015462
         5         2         1         5         1         2     -0.00057770
         5         2         1         5         1         3      0.00050168
         5         2         1         5         1         4      0.00025197
         5         2         1         5         2         1     -0.00008148
         5         2         1         5         2         2     -0.00061137
         5         2         1         5         2         3      0.00045097
         5         2         1         5         2         4      0.00035015
         5         2         1         5         3         1     -0.00024177
         5         2         1         5         3         2      0.00037983
         5         2         1         5         3         3     -0.00049498
         5         2         1         5         3         4      0.00000065
         5         2         2         6         1         1      0.00051361
         5         2         3         7         1         1      0.00051361
         5         2         5         1         1         1     -0.00013353
         5         2         5         1         1         2     -0.00022696
         5         2         5         1         1         3     -0.00041041
         5         2         5         1         2         1     -0.00071082
         5         2         5         1         2         2     -0.00035843
         5         2         5         1         2         3      0.00021469
         5         2         5         1         3         1      0.00098126
         5         2         5         1         3         2      0.00031965
         5         2         5         1         3         3     -0.00060696
         5         2         5         1         4         1      0.00024935
         5         2         5         1         4         2      0.00021504
         5         2         5         1         4         3      0.00008743
         5         2         6         2         1         1      0.00051158
         5         2         7         3         1         1      0.00051158
         6         3         1         5         1         1      0.06515440
         6         3         1         5         1         2     -0.00242403
         6         3         1         5         1         3      0.00954485
         6         3         1         5         1         4      0.00070500
         6         3         1         5         2         1      0.01100096
         6         3         1         5         2         2      0.00459632
         6         3         1         5         2         3      0.00273096
         6         3         1         5         2         4     -0.00330397
         6         3         1         5         3         1      0.00659698
         6         3         1         5         3         2      0.00708248
         6         3         1         5         3         3     -0.00049812
         6         3         1         5         3         4     -0.00444097
         6         3         2         6         1         1      0.02283029
         6         3         3         7         1         1      0.00260287
         6         3         5         1         1         1      0.06601462
         6         3         5         1         1         2      0.01546309
         6         3         5         1         1         3     -0.00139712
         6         3         5         1         2         1     -0.00770437
         6         3         5         1         2         2      0.00376732
         6         3         5         1         2         3      0.00375278
         6         3         5         1         3         1      0.00977992
         6         3         5         1         3         2      0.00286903
         6         3         5         1         3         3      0.00005352
         6         3         5         1         4         1      0.00094650
         6         3         5         1         4         2     -0.00363181
         6         3         5         1         4         3     -0.00596671
         6         3         6         2         1         1      0.02698775
         6         3         7         3         1         1      0.00281754
         7         4         1         5         1         1      0.06515440
         7         4         1         5         1         2     -0.00242403
         7         4         1         5         1         3      0.00954485
         7         4         1         5         1         4      0.00070500
         7         4         1         5         2         1      0.01100096
         7         4         1         5         2         2      0.00459632
         7         4         1         5         2         3      0.00273096
         7         4         1         5         2         4     -0.00330397
         7         4         1         5         3         1      0.00659698
         7         4         1         5         3         2      0.00708248
         7         4         1         5         3         3     -0.00049812
         7         4         1         5         3         4     -0.00444097
         7         4         2         6         1         1      0.00260287
         7         4         3         7         1         1      0.02283029
         7         4         5         1         1         1      0.06601462
         7         4         5         1         1         2      0.01546309
         7         4         5         1         1         3     -0.00139712
         7         4         5         1         2         1     -0.00770437
         7         4         5         1         2         2      0.00376732
         7         4         5         1         2         3      0.00375278
         7         4         5         1         3         1      0.00977992
         7         4         5         1         3         2      0.00286903
         7         4         5         1         3         3      0.00005352
         7         4         5         1         4         1      0.00094650
         7         4         5         1         4         2     -0.00363181
         7         4         5         1         4         3     -0.00596671
         7         4         6         2         1         1      0.00281754
         7         4         7         3         1         1      0.02698775
         5         3         1         6         1         1      0.00004205
         5         3         1         6         2         1      0.00014997
         5         3         1         6         3         1      0.00011799
         5         3         2         5         1         1     -0.00078999
         5         3         2         5         1         2     -0.00039712
         5         3         2         5         1         3     -0.00018397
         5         3         2         5         1         4      0.00039421
         5         3         5         2         1         1      0.00005576
         5         3         5         2         2         1      0.00010121
         5         3         5         2         3         1      0.00005126
         5         3         5         2         4         1     -0.00016789
         5         3         6         1         1         1     -0.00017689
         5         3         6         1         1         2     -0.00040006
         5         3         6         1         1         3     -0.00030530
         6         1         1         6         1         1     -0.00022708
         6         1         1         6         2         1     -0.00046085
         6         1         1         6         3         1     -0.00039861
         6         1         2         5         1         1      0.00051999
         6         1         2         5         1         2      0.00014792
         6         1         2         5         1         3     -0.00003158
         6         1         2         5         1         4     -0.00019683
         6         1         5         2         1         1     -0.00133978
         6         1         5         2         2         1     -0.00044998
         6         1         5         2         3         1     -0.00020348
         6         1         5         2         4         1      0.00040818
         6         1         6         1         1         1      0.00011819
         6         1         6         1         1         2      0.00021575
         6         1         6         1         1         3      0.00007879
         6         2         1         6         1         1     -0.00004762
         6         2         1         6         2         1     -0.00459914
         6         2         1         6         3         1     -0.00443499
         6         2         2         5         1         1     -0.03626196
         6         2         2         5         1         2     -0.01638600
         6         2         2         5         1         3     -0.00098992
         6         2         2         5         1         4      0.01219382
         6         2         5         2         1         1     -0.01431779
         6         2         5         2         2         1     -0.00538755
         6         2         5         2         3         1     -0.00200041
         6         2         5         2         4         1      0.00601191
         6         2         6         1         1         1      0.00744284
         6         2         6         1         1         2     -0.00821624
         6         2         6         1         1         3     -0.01221093
         5         4         1         7         1         1      0.00004205
         5         4         1         7         2         1      0.00014997
         5         4         1         7         3         1      0.00011799
         5         4         3         5         1         1     -0.00078999
         5         4         3         5         1         2     -0.00039712
         5         4         3         5         1         3     -0.00018397
         5         4         3         5         1         4      0.00039421
         5         4         5         3         1         1      0.00005576
         5         4         5         3         2         1      0.00010121
         5         4         5         3         3         1      0.00005126
         5         4         5         3         4         1     -0.00016789
         5         4         7         1         1         1     -0.00017689
         5         4         7         1         1         2     -0.00040006
         5         4         7         1         1         3     -0.00030530
         7         1         1         7         1         1     -0.00022708
         7         1         1         7         2         1     -0.00046085
         7         1         1         7         3         1     -0.00039861
         7         1         3         5         1         1      0.00051999
         7         1         3         5         1         2      0.00014792
         7         1         3         5         1         3     -0.00003158
         7         1         3         5         1         4     -0.00019683
         7         1         5         3         1         1     -0.00133978
         7         1         5         3         2         1     -0.00044998
         7         1         5         3         3         1     -0.00020348
         7         1         5         3         4         1      0.00040818
         7         1         7         1         1         1      0.00011819
         7         1         7         1         1         2      0.00021575
         7         1         7         1         1         3      0.00007879
         7         2         1         7         1         1     -0.00004762
         7         2         1         7         2         1     -0.00459914
         7         2         1         7         3         1     -0.00443499
         7         2         3         5         1         1     -0.03626196
         7         2         3         5         1         2     -0.01638600
         7         2         3         5         1         3     -0.00098992
         7         2         3         5         1         4      0.01219382
         7         2         5         3         1         1     -0.01431779
         7         2         5         3         2         1     -0.00538755
         7         2         5         3         3         1     -0.00200041
         7         2         5         3         4         1      0.00601191
         7         2         7         1         1         1      0.00744284
         7         2         7         1         1         2     -0.00821624
         7         2         7         1         1         3     -0.01221093
         6         4         2         7         1         1      0.01656158
         6         4         3         6         1         1      0.00366584
         6         4         6         3         1         1      0.02019303
         6         4         7         2         1         1      0.00397717
         7         3         2         7         1         1      0.00366584
         7         3         3         6         1         1      0.01656158
         7         3         6         3         1         1      0.00397717
         7         3         7         2         1         1      0.02019303


 RESULTS
 =======

  Reference energy                   -107.380090941820

  Correlated core orbitals:             1.1       1.5
  Orbital energies:                   -15.7354  -15.7355

  CISD core-core energy                -0.000483363559
  CISD core-valence energy             -0.001096800025
  CISD valence correlation energy      -8.075022472395

  CISD singlet pair energy             -8.050685243903
  CISD triplet pair energy             -0.025305384769
  CISD correlation energy              -8.076602635979

 !CISD total energy                  -115.456693577798

 Timing summary (sec):

 STEP                 CPU(USER)    SYS     CPU(TOT)    WALL
 CCSD iterations         0.02      0.01      0.03      0.02

 Program statistics:

 Available memory in ccsd:                39999004
 Min. memory needed in ccsd:                  3487
 Max. memory used in ccsd:                    3663
 Max. memory used in cckext:                 37024 ( 1 integral passes)



 **********************************************************************************************************************************
 DATASETS  * FILE   NREC   LENGTH (MB)   RECORD NAMES
              1      20       30.00       500      700      610      900      950      970     1000      129      960     1100   
                                          VAR     GEOM    BASINP   SYMINP    ZMAT    AOBASIS   BASIS     P2S    ABASIS      S 
                                         1400     1410     1200     1210     1080     1600     1650     1300     1700     1380   
                                           T        V       H0       H01     AOSYM     SMH    MOLCAS    ERIS     OPER     JKOP   

              3       5       14.77       500      610      700     1000     2100   
                                          VAR    BASINP    GEOM     BASIS     RHF  

 PROGRAMS   *        TOTAL      CISD       INT   RESTART
 CPU TIMES  *         0.31      0.10      0.10      0.01
 REAL TIME  *         0.47 SEC
 DISK USED  *        49.44 MB
 **********************************************************************************************************************************
 Molecular orbitals read from record     2100.3  Type=RHF/CANONICAL (state 1.1)
 Occupation numbers read from record     2100.3  Type=RHF/RHF (state 1.1)
 Orbital energies read from record       2100.3  Type=RHF/CANONICAL (state 1.1)
 Redundancy group numbers read from rec  2100.3  Type=RHF/RHF (state 1.1)

 CISD/6-31G energy=   -115.456693577798

            CISD
   -115.45669358
 **********************************************************************************************************************************
 Molpro calculation terminated
