
 Primary working directories    : /scr/yuriaoto/job.023227/molpro.dirvFYyziv
 Secondary working directories  : /scr/yuriaoto/job.023227/molpro.dirvFYyziv
 Wavefunction directory         : /scr/yuriaoto/job.023227/
 Main file repository           : /scr/yuriaoto/job.023227/molpro.dirvFYyziv/

 id        : yuriaoto

 Nodes             nprocs
 t-rex.ufabc.int.br    1

 Using customized tuning parameters: mindgm=8; mindgv=16; mindgc=1; mindgr=1; noblas=0; minvec=7
 default implementation of scratch files=df  


 Variables initialized (933), CPU time= 0.00 sec
 ***,
 memory,40,m
 gprint,orbital,basis,civector
 gthresh,thrprint=0,printci=0.0
 file,3,wfu.dat,old
 
 {cisd,CC_NORM_MAX=1000.0
 thresh,printci=0.0,ENERGY=1.0E+10,COEFF=1.0E+12
 print,ref=1
 wf,14,1,0;
 }
 
 Commands  initialized (760), CPU time= 0.01 sec, 617 directives.
 Default parameters read. Elapsed time= 0.05 sec

 Checking input...
 Passed
1


                                         ***  PROGRAM SYSTEM MOLPRO  ***
                                       Copyright, TTI GmbH Stuttgart, 2015
                                    Version 2019.2 linked Abr  7 2019 15:10:35


 **********************************************************************************************************************************
 LABEL *                                                                                 
  64 bit serial version                                                                  DATE: 28-May-20          TIME: 22:16:57  
 **********************************************************************************************************************************

 SHA1:             3a8a58c585c929645742fb5a1b7541a4ad1da699
 **********************************************************************************************************************************


 THRESHOLDS:

 ZERO    =  1.00D-12  ONEINT  =  1.00D-12  TWOINT  =  1.00D-11  PREFAC  =  1.00D-14  XXXXXX  =  1.00D-09  EORDER  =  1.00D-04
 ENERGY  =  0.00D+00  ETEST   =  0.00D+00  EDENS   =  0.00D+00  THRDEDEF=  1.00D-06  GRADIENT=  1.00D-02  STEP    =  1.00D-03
 ORBITAL =  1.00D-05  CIVEC   =  1.00D-05  COEFF   =  1.00D-04  PRINTCI =  0.00D+00  PUNCHCI =  9.90D+01  OPTGRAD =  3.00D-04
 OPTENERG=  1.00D-06  OPTSTEP =  3.00D-04  THRGRAD =  1.00D-10  COMPRESS=  1.00D-11  VARMIN  =  1.00D-07  VARMAX  =  1.00D-03
 THRDOUB =  0.00D+00  THRDIV  =  1.00D-05  THRRED  =  1.00D-07  THRPSP  =  1.00D+00  THRDC   =  1.00D-10  THRCS   =  1.00D-10
 THRNRM  =  1.00D-08  THREQ   =  0.00D+00  THRDE   =  1.00D+00  THRREF  =  1.00D-05  SPARFAC =  1.00D+00  THRDLP  =  1.00D-07
 THRDIA  =  1.00D-10  THRDLS  =  1.00D-07  THRGPS  =  0.00D+00  THRKEX  =  0.00D+00  THRDIS  =  2.00D-01  THRVAR  =  1.00D-10
 THRLOC  =  1.00D-06  THRGAP  =  1.00D-06  THRLOCT = -1.00D+00  THRGAPT = -1.00D+00  THRORB  =  1.00D-06  THRMLTP =  0.00D+00
 THRCPQCI=  1.00D-10  KEXTA   =  0.00D+00  THRCOARS=  0.00D+00  SYMTOL  =  1.00D-06  GRADTOL =  1.00D-06  THROVL  =  1.00D-08
 THRORTH =  1.00D-08  GRID    =  1.00D-06  GRIDMAX =  1.00D-03  DTMAX   =  0.00D+00  THROCCDE=  1.00D-01  THROCCDE=  1.00D-01
 THRPRINT=  0.00D+00


 Variable memory set to   40000000 words,  buffer space 



 Permanent file  3  wfu.dat  assigned.  Implementation=df    Size= 14.08 MB


 PROGRAM * RESTART 


 Reading variables from file 3

 _FNUC           =      0.00000000
 _BASIS          =    6-31G
 _NELEC          =     14.00000000
 _PROGRAM        =    RHF-SCF
 _DMX_SCF        =      0.00000000
 _DMY_SCF        =      0.00000000
 _DMZ_SCF        =      0.00000000
 _HOMO           =      1.60000000
 _EHOMO          =     -0.38392134
 _LUMO           =      2.50000000
 _ELUMO          =     -0.46667442
 _ENERGY         =   -107.38009094
 _ENERGY_METHOD  =    RHF
 _ENERGY_BASIS   =    6-31G
 _ENUC           =     16.33333333
 _EPS1(1:5)      =    -15.73544598    -1.04733051    -0.07940041     0.91426533     1.18245798
 _EPS2(1:2)      =     -0.54144768     0.87574288
 _EPS3(1:2)      =     -0.54144768     0.87574288
 _EPS5(1:5)      =    -15.73552654    -0.46667442     0.32356143     0.86926886     1.36910071
 _EPS6(1:2)      =     -0.38392134     0.94896024
 _EPS7(1:2)      =     -0.38392134     0.94896024
 _IPROC_MPP      =      0.00000000
 _IPROC_MPPX     =      0.00000000
 _ORBITAL        =   2100.30000000
 _STATUS         =      1.00000000
 _DATE           =    23-Mar-20
 _LASTORB        =    RHF
 _OUTPUT         =    /scr/yuriaoto/job.022813/RHF.xml
 _PGROUP         =    D2h 
 _TIME           =    14:34:42
 R               =      3.00000000

 Geometry written to block  1 of record 700


 **********************************************************************************************************************************
 DATASETS  * FILE   NREC   LENGTH (MB)   RECORD NAMES
              3       5       14.77       500      610      700     1000     2100   
                                          VAR    BASINP    GEOM     BASIS     RHF  

 PROGRAMS   *        TOTAL   RESTART
 CPU TIMES  *         0.13      0.02
 REAL TIME  *         0.15 SEC
 DISK USED  *        26.84 MB
 **********************************************************************************************************************************


 Recomputing integrals since basis changed


 Using spherical harmonics

 Library entry N      S 6-31G                selected for orbital group  1
 Library entry N      P 6-31G                selected for orbital group  1


 PROGRAM * SEWARD (Integral evaluation for generally contracted gaussian basis sets)     Author: Roland Lindh, 1990

 Geometry written to block  1 of record 700

 Orientation using atomic masses  
 Molecule type: Linear
 User-specified symmetry elements: X,Y,Z
 Symmetry elements: X,Y,Z
 Rotational constants:      28.6329822     28.6329822      0.0000000 GHz  (calculated with average atomic masses)

 Point group  D2h 



 ATOMIC COORDINATES

 NR  ATOM    CHARGE       X              Y              Z

   1  N1      7.00    0.000000000    0.000000000   -1.500000000
   2  N2      7.00    0.000000000    0.000000000    1.500000000

 Bond lengths in Bohr (Angstrom)

 1-2  3.000000000
     ( 1.587531633)


 BASIS DATA

   Nr Sym  Nuc  Type         Exponents   Contraction coefficients

    1.1 Ag    1  1s        4173.511500     0.001835
              2  1s         627.457910     0.013995
                            142.902090     0.068587
                             40.234329     0.232241
                             12.820213     0.469070
                              4.390437     0.360455
    2.1 Ag    1  1s          11.626362    -0.114961
              2  1s           2.716280    -0.169117
                              0.772218     1.145852
    3.1 Ag    1  1s           0.212032     1.000000
              2  1s    
    4.1 Ag    1  2pz         11.626362     0.067580
              2 -2pz          2.716280     0.323907
                              0.772218     0.740895
    5.1 Ag    1  2pz          0.212032     1.000000
              2 -2pz   
    1.2 B3u   1  2px         11.626362     0.067580
              2  2px          2.716280     0.323907
                              0.772218     0.740895
    2.2 B3u   1  2px          0.212032     1.000000
              2  2px   
    1.3 B2u   1  2py         11.626362     0.067580
              2  2py          2.716280     0.323907
                              0.772218     0.740895
    2.3 B2u   1  2py          0.212032     1.000000
              2  2py   
    1.5 B1u   1  1s        4173.511500     0.001835
              2 -1s         627.457910     0.013995
                            142.902090     0.068587
                             40.234329     0.232241
                             12.820213     0.469070
                              4.390437     0.360455
    2.5 B1u   1  1s          11.626362    -0.114961
              2 -1s           2.716280    -0.169117
                              0.772218     1.145852
    3.5 B1u   1  1s           0.212032     1.000000
              2 -1s    
    4.5 B1u   1  2pz         11.626362     0.067580
              2  2pz          2.716280     0.323907
                              0.772218     0.740895
    5.5 B1u   1  2pz          0.212032     1.000000
              2  2pz   
    1.6 B2g   1  2px         11.626362     0.067580
              2 -2px          2.716280     0.323907
                              0.772218     0.740895
    2.6 B2g   1  2px          0.212032     1.000000
              2 -2px   
    1.7 B3g   1  2py         11.626362     0.067580
              2 -2py          2.716280     0.323907
                              0.772218     0.740895
    2.7 B3g   1  2py          0.212032     1.000000
              2 -2py   

 NUCLEAR CHARGE:                   14
 NUMBER OF PRIMITIVE AOS:          44
 NUMBER OF SYMMETRY AOS:           44
 NUMBER OF CONTRACTIONS:           18   (    5Ag  +    2B3u +    2B2u +    0B1g +    5B1u +    2B2g +    2B3g +    0Au  )
 NUMBER OF CORE ORBITALS:           2   (    1Ag  +    0B3u +    0B2u +    0B1g +    1B1u +    0B2g +    0B3g +    0Au  )
 NUMBER OF VALENCE ORBITALS:        8   (    2Ag  +    1B3u +    1B2u +    0B1g +    2B1u +    1B2g +    1B3g +    0Au  )


 NUCLEAR REPULSION ENERGY   16.33333333

 Eigenvalues of metric

         1 0.238E+00 0.415E+00 0.926E+00 0.155E+01 0.276E+01
         2 0.544E+00 0.186E+01
         3 0.544E+00 0.186E+01
         5 0.420E-01 0.342E+00 0.806E+00 0.100E+01 0.192E+01
         6 0.352E+00 0.124E+01
         7 0.352E+00 0.124E+01


 Contracted 2-electron integrals neglected if value below      1.0D-11
 AO integral compression algorithm  1   Integral accuracy      1.0D-11

     0.262 MB (compressed) written to integral file (100.0%)


 NUMBER OF SORTED TWO-ELECTRON INTEGRALS:       2829.     BUFFER LENGTH:  32768
 NUMBER OF SEGMENTS:   1  SEGMENT LENGTH:       2829      RECORD LENGTH: 524288

 Memory used in sort:       0.56 MW

 SORT1 READ        8184. AND WROTE        2829. INTEGRALS IN      1 RECORDS. CPU TIME:     0.00 SEC, REAL TIME:     0.01 SEC
 SORT2 READ        2829. AND WROTE        2829. INTEGRALS IN      1 RECORDS. CPU TIME:     0.01 SEC, REAL TIME:     0.00 SEC

 FILE SIZES:   FILE 1:    30.2 MBYTE,  FILE 4:     4.2 MBYTE,   TOTAL:     34.4 MBYTE

 OPERATOR DM      FOR CENTER  0  COORDINATES:    0.000000    0.000000    0.000000


 **********************************************************************************************************************************
 DATASETS  * FILE   NREC   LENGTH (MB)   RECORD NAMES
              1      19       29.97       500      700      610      900      950      970     1000      129      960     1100   
                                          VAR     GEOM    BASINP   SYMINP    ZMAT    AOBASIS   BASIS     P2S    ABASIS      S 
                                         1400     1410     1200     1210     1080     1600     1650     1300     1700   
                                           T        V       H0       H01     AOSYM     SMH    MOLCAS    ERIS     OPER   

              3       5       14.77       500      610      700     1000     2100   
                                          VAR    BASINP    GEOM     BASIS     RHF  

 PROGRAMS   *        TOTAL       INT   RESTART
 CPU TIMES  *         0.28      0.15      0.02
 REAL TIME  *         0.49 SEC
 DISK USED  *        49.44 MB
 **********************************************************************************************************************************


 PROGRAM * CISD (Closed-shell CI(SD))     Authors: C. Hampel, H.-J. Werner, 1991, M. Deegan, P.J. Knowles, 1992


 Input parameters for THRESH:

 ENERGY   =    1.00D+10
 COEFF    =    1.00D+12
 PRINTCI  =    0.000000
 THRPRINT =    0.000000

 Convergence thresholds:  THRVAR = 1.00D+24  THRDEN = 1.00D+10

 Number of core orbitals:           2 (   1   0   0   0   1   0   0 )
 Number of closed-shell orbitals:   5 (   1   1   1   0   0   1   1 )
 Number of external orbitals:      11 (   3   1   1   0   4   1   1 )

 Molecular orbitals read from record     2100.3  Type=RHF/CANONICAL (state 1.1)

 Number of N-1 electron functions:               5
 Number of N-2 electron functions:              15
 Number of singly external CSFs:                 7
 Number of doubly external CSFs:               228
 Total number of CSFs:                         236

 Length of J-op  integral file:               0.00 MB
 Length of K-op  integral file:               0.04 MB

 Integral transformation finished. Total CPU:   0.00 sec, npass=  1  Memory used:   0.07 MW

 Reference energy:                   -107.38009094

 MP2 singlet pair energy:              -0.08743338
 MP2 triplet pair energy:              -0.04453996
 MP2 correlation energy:               -0.13197334
 MP2 total energy:                   -107.51206428

 SCS-MP2 correlation energy:           -0.13263381   (PS=  1.200000  PT=  0.333333)
 SCS-MP2 total energy:               -107.51272475

 ITER.      SQ.NORM     CORR.ENERGY   TOTAL ENERGY   ENERGY CHANGE        DEN1      VAR(S)    VAR(P)  DIIS     TIME  TIME/IT
   1    224.76986624    -8.12351841  -115.50360935    -7.99154507     1.41187754  0.30D-03  0.20D+03  0  0     0.01     0.00


 ! DIPOLE MOMENTS:                      0.00000000     0.00000000     0.00000000



 Norm of t1 vector:      0.01741885      S-energy:    -0.00060050      T1 diagnostic:  0.00389497

 Singles amplitudes (print threshold =  0.000E+00):

         I         SYM. A    A   T(IA)

         1         1         1      0.00188461
         1         1         2     -0.00469779
         1         1         3     -0.00832113
         2         2         1     -0.00189281
         3         3         1     -0.00189281
         4         6         1      0.00498400
         5         7         1      0.00498400

 Doubles amplitudes (print threshold =  0.000E+00):

         I         J         SYM. A    SYM. B    A         B      T(IJ, AB)

         1         1         1         1         1         1     -0.03591911
         1         1         1         1         1         2     -0.00359494
         1         1         1         1         1         3      0.00646849
         1         1         1         1         2         1     -0.00359494
         1         1         1         1         2         2     -0.00261500
         1         1         1         1         2         3     -0.00233256
         1         1         1         1         3         1      0.00646849
         1         1         1         1         3         2     -0.00233256
         1         1         1         1         3         3     -0.00992035
         1         1         2         2         1         1     -0.00509210
         1         1         3         3         1         1     -0.00509210
         1         1         5         5         1         1     -0.13160153
         1         1         5         5         1         2     -0.03776096
         1         1         5         5         1         3      0.00426704
         1         1         5         5         1         4      0.01591276
         1         1         5         5         2         1     -0.03776096
         1         1         5         5         2         2     -0.02471481
         1         1         5         5         2         3      0.00739292
         1         1         5         5         2         4      0.00990839
         1         1         5         5         3         1      0.00426704
         1         1         5         5         3         2      0.00739292
         1         1         5         5         3         3     -0.00400813
         1         1         5         5         3         4     -0.00275116
         1         1         5         5         4         1      0.01591276
         1         1         5         5         4         2      0.00990839
         1         1         5         5         4         3     -0.00275116
         1         1         5         5         4         4     -0.00680733
         1         1         6         6         1         1     -0.00336297
         1         1         7         7         1         1     -0.00336297
         2         2         1         1         1         1     -0.00830354
         2         2         1         1         1         2     -0.00047459
         2         2         1         1         1         3     -0.00034651
         2         2         1         1         2         1     -0.00047459
         2         2         1         1         2         2      0.00057821
         2         2         1         1         2         3     -0.00172850
         2         2         1         1         3         1     -0.00034651
         2         2         1         1         3         2     -0.00172850
         2         2         1         1         3         3     -0.00494257
         2         2         2         2         1         1     -0.02499015
         2         2         3         3         1         1     -0.00064494
         2         2         5         5         1         1     -1.37988718
         2         2         5         5         1         2     -0.03666768
         2         2         5         5         1         3     -0.01559036
         2         2         5         5         1         4      0.01036172
         2         2         5         5         2         1     -0.03666768
         2         2         5         5         2         2     -0.00340537
         2         2         5         5         2         3     -0.00045215
         2         2         5         5         2         4      0.00126303
         2         2         5         5         3         1     -0.01559036
         2         2         5         5         3         2     -0.00045215
         2         2         5         5         3         3      0.00134184
         2         2         5         5         3         4     -0.00084654
         2         2         5         5         4         1      0.01036172
         2         2         5         5         4         2      0.00126303
         2         2         5         5         4         3     -0.00084654
         2         2         5         5         4         4     -0.00140575
         2         2         6         6         1         1     -0.01627300
         2         2         7         7         1         1     -0.00003045
         3         3         1         1         1         1     -0.00830354
         3         3         1         1         1         2     -0.00047459
         3         3         1         1         1         3     -0.00034651
         3         3         1         1         2         1     -0.00047459
         3         3         1         1         2         2      0.00057821
         3         3         1         1         2         3     -0.00172850
         3         3         1         1         3         1     -0.00034651
         3         3         1         1         3         2     -0.00172850
         3         3         1         1         3         3     -0.00494257
         3         3         2         2         1         1     -0.00064494
         3         3         3         3         1         1     -0.02499015
         3         3         5         5         1         1     -1.37988718
         3         3         5         5         1         2     -0.03666768
         3         3         5         5         1         3     -0.01559036
         3         3         5         5         1         4      0.01036172
         3         3         5         5         2         1     -0.03666768
         3         3         5         5         2         2     -0.00340537
         3         3         5         5         2         3     -0.00045215
         3         3         5         5         2         4      0.00126303
         3         3         5         5         3         1     -0.01559036
         3         3         5         5         3         2     -0.00045215
         3         3         5         5         3         3      0.00134184
         3         3         5         5         3         4     -0.00084654
         3         3         5         5         4         1      0.01036172
         3         3         5         5         4         2      0.00126303
         3         3         5         5         4         3     -0.00084654
         3         3         5         5         4         4     -0.00140575
         3         3         6         6         1         1     -0.00003045
         3         3         7         7         1         1     -0.01627300
         4         4         1         1         1         1     -0.15947296
         4         4         1         1         1         2     -0.02373292
         4         4         1         1         1         3     -0.00338965
         4         4         1         1         2         1     -0.02373292
         4         4         1         1         2         2     -0.01678837
         4         4         1         1         2         3     -0.00494008
         4         4         1         1         3         1     -0.00338965
         4         4         1         1         3         2     -0.00494008
         4         4         1         1         3         3     -0.00534918
         4         4         2         2         1         1     -0.03251832
         4         4         3         3         1         1     -0.00620390
         4         4         5         5         1         1     10.48314304
         4         4         5         5         1         2     -0.01277425
         4         4         5         5         1         3     -0.00415533
         4         4         5         5         1         4     -0.01183573
         4         4         5         5         2         1     -0.01277425
         4         4         5         5         2         2     -0.03950078
         4         4         5         5         2         3      0.00385521
         4         4         5         5         2         4      0.00473764
         4         4         5         5         3         1     -0.00415533
         4         4         5         5         3         2      0.00385521
         4         4         5         5         3         3     -0.01300903
         4         4         5         5         3         4      0.00479114
         4         4         5         5         4         1     -0.01183573
         4         4         5         5         4         2      0.00473764
         4         4         5         5         4         3      0.00479114
         4         4         5         5         4         4     -0.00960809
         4         4         6         6         1         1     -0.03127793
         4         4         7         7         1         1     -0.00574504
         5         5         1         1         1         1     -0.15947296
         5         5         1         1         1         2     -0.02373292
         5         5         1         1         1         3     -0.00338965
         5         5         1         1         2         1     -0.02373292
         5         5         1         1         2         2     -0.01678837
         5         5         1         1         2         3     -0.00494008
         5         5         1         1         3         1     -0.00338965
         5         5         1         1         3         2     -0.00494008
         5         5         1         1         3         3     -0.00534918
         5         5         2         2         1         1     -0.00620390
         5         5         3         3         1         1     -0.03251832
         5         5         5         5         1         1     10.48314304
         5         5         5         5         1         2     -0.01277425
         5         5         5         5         1         3     -0.00415533
         5         5         5         5         1         4     -0.01183573
         5         5         5         5         2         1     -0.01277425
         5         5         5         5         2         2     -0.03950078
         5         5         5         5         2         3      0.00385521
         5         5         5         5         2         4      0.00473764
         5         5         5         5         3         1     -0.00415533
         5         5         5         5         3         2      0.00385521
         5         5         5         5         3         3     -0.01300903
         5         5         5         5         3         4      0.00479114
         5         5         5         5         4         1     -0.01183573
         5         5         5         5         4         2      0.00473764
         5         5         5         5         4         3      0.00479114
         5         5         5         5         4         4     -0.00960809
         5         5         6         6         1         1     -0.00574504
         5         5         7         7         1         1     -0.03127793
         2         1         1         2         1         1      0.00252773
         2         1         1         2         2         1      0.00499521
         2         1         1         2         3         1      0.00605474
         2         1         2         1         1         1      0.00022808
         2         1         2         1         1         2      0.00930850
         2         1         2         1         1         3      0.01353486
         2         1         5         6         1         1      0.01114719
         2         1         5         6         2         1      0.00594878
         2         1         5         6         3         1      0.00083125
         2         1         5         6         4         1     -0.00459303
         2         1         6         5         1         1      0.02606135
         2         1         6         5         1         2      0.01366121
         2         1         6         5         1         3     -0.00036247
         2         1         6         5         1         4     -0.01004474
         3         1         1         3         1         1      0.00252773
         3         1         1         3         2         1      0.00499521
         3         1         1         3         3         1      0.00605474
         3         1         3         1         1         1      0.00022808
         3         1         3         1         1         2      0.00930850
         3         1         3         1         1         3      0.01353486
         3         1         5         7         1         1      0.01114719
         3         1         5         7         2         1      0.00594878
         3         1         5         7         3         1      0.00083125
         3         1         5         7         4         1     -0.00459303
         3         1         7         5         1         1      0.02606135
         3         1         7         5         1         2      0.01366121
         3         1         7         5         1         3     -0.00036247
         3         1         7         5         1         4     -0.01004474
         3         2         2         3         1         1     -0.00422073
         3         2         3         2         1         1     -0.02012448
         3         2         6         7         1         1     -0.00308979
         3         2         7         6         1         1     -0.01315276
         5         4         2         3         1         1     -0.00456402
         5         4         3         2         1         1     -0.02175039
         5         4         6         7         1         1     -0.00400103
         5         4         7         6         1         1     -0.02153187
         4         2         1         5         1         1      0.06551278
         4         2         1         5         1         2     -0.00244160
         4         2         1         5         1         3      0.00957418
         4         2         1         5         1         4      0.00070311
         4         2         1         5         2         1      0.01106341
         4         2         1         5         2         2      0.00460243
         4         2         1         5         2         3      0.00274796
         4         2         1         5         2         4     -0.00331379
         4         2         1         5         3         1      0.00663353
         4         2         1         5         3         2      0.00710232
         4         2         1         5         3         3     -0.00050326
         4         2         1         5         3         4     -0.00445209
         4         2         2         6         1         1      0.02286962
         4         2         3         7         1         1      0.00261491
         4         2         5         1         1         1      0.06630657
         4         2         5         1         1         2      0.01552363
         4         2         5         1         1         3     -0.00137482
         4         2         5         1         2         1     -0.00773045
         4         2         5         1         2         2      0.00377300
         4         2         5         1         2         3      0.00376845
         4         2         5         1         3         1      0.00980989
         4         2         5         1         3         2      0.00288600
         4         2         5         1         3         3      0.00004834
         4         2         5         1         4         1      0.00094536
         4         2         5         1         4         2     -0.00364147
         4         2         5         1         4         3     -0.00597783
         4         2         6         2         1         1      0.02702987
         4         2         7         3         1         1      0.00282974
         5         3         1         5         1         1      0.06551278
         5         3         1         5         1         2     -0.00244160
         5         3         1         5         1         3      0.00957418
         5         3         1         5         1         4      0.00070311
         5         3         1         5         2         1      0.01106341
         5         3         1         5         2         2      0.00460243
         5         3         1         5         2         3      0.00274796
         5         3         1         5         2         4     -0.00331379
         5         3         1         5         3         1      0.00663353
         5         3         1         5         3         2      0.00710232
         5         3         1         5         3         3     -0.00050326
         5         3         1         5         3         4     -0.00445209
         5         3         2         6         1         1      0.00261491
         5         3         3         7         1         1      0.02286962
         5         3         5         1         1         1      0.06630657
         5         3         5         1         1         2      0.01552363
         5         3         5         1         1         3     -0.00137482
         5         3         5         1         2         1     -0.00773045
         5         3         5         1         2         2      0.00377300
         5         3         5         1         2         3      0.00376845
         5         3         5         1         3         1      0.00980989
         5         3         5         1         3         2      0.00288600
         5         3         5         1         3         3      0.00004834
         5         3         5         1         4         1      0.00094536
         5         3         5         1         4         2     -0.00364147
         5         3         5         1         4         3     -0.00597783
         5         3         6         2         1         1      0.00282974
         5         3         7         3         1         1      0.02702987
         4         1         1         6         1         1     -0.00005747
         4         1         1         6         2         1     -0.00461270
         4         1         1         6         3         1     -0.00444358
         4         1         2         5         1         1     -0.03634764
         4         1         2         5         1         2     -0.01641439
         4         1         2         5         1         3     -0.00098980
         4         1         2         5         1         4      0.01221086
         4         1         5         2         1         1     -0.01436689
         4         1         5         2         2         1     -0.00539889
         4         1         5         2         3         1     -0.00200870
         4         1         5         2         4         1      0.00602212
         4         1         6         1         1         1      0.00746232
         4         1         6         1         1         2     -0.00822540
         4         1         6         1         1         3     -0.01223338
         5         1         1         7         1         1     -0.00005747
         5         1         1         7         2         1     -0.00461270
         5         1         1         7         3         1     -0.00444358
         5         1         3         5         1         1     -0.03634764
         5         1         3         5         1         2     -0.01641439
         5         1         3         5         1         3     -0.00098980
         5         1         3         5         1         4      0.01221086
         5         1         5         3         1         1     -0.01436689
         5         1         5         3         2         1     -0.00539889
         5         1         5         3         3         1     -0.00200870
         5         1         5         3         4         1      0.00602212
         5         1         7         1         1         1      0.00746232
         5         1         7         1         1         2     -0.00822540
         5         1         7         1         1         3     -0.01223338
         4         3         2         7         1         1      0.01660022
         4         3         3         6         1         1      0.00365449
         4         3         6         3         1         1      0.02023403
         4         3         7         2         1         1      0.00396610
         5         2         2         7         1         1      0.00365449
         5         2         3         6         1         1      0.01660022
         5         2         6         3         1         1      0.00396610
         5         2         7         2         1         1      0.02023403


 RESULTS
 =======

  Reference energy                   -107.380090941820
  CISD singlet pair energy             -8.098445188613
  CISD triplet pair energy             -0.024472716505
  CISD correlation energy              -8.123518407805

 !CISD total energy                  -115.503609349625

 Timing summary (sec):

 STEP                 CPU(USER)    SYS     CPU(TOT)    WALL
 CCSD iterations         0.01      0.01      0.02      0.02

 Program statistics:

 Available memory in ccsd:                39999100
 Min. memory needed in ccsd:                  2098
 Max. memory used in ccsd:                    2134
 Max. memory used in cckext:                 35241 ( 1 integral passes)



 **********************************************************************************************************************************
 DATASETS  * FILE   NREC   LENGTH (MB)   RECORD NAMES
              1      20       29.99       500      700      610      900      950      970     1000      129      960     1100   
                                          VAR     GEOM    BASINP   SYMINP    ZMAT    AOBASIS   BASIS     P2S    ABASIS      S 
                                         1400     1410     1200     1210     1080     1600     1650     1300     1700     1380   
                                           T        V       H0       H01     AOSYM     SMH    MOLCAS    ERIS     OPER     JKOP   

              3       5       14.77       500      610      700     1000     2100   
                                          VAR    BASINP    GEOM     BASIS     RHF  

 PROGRAMS   *        TOTAL      CISD       INT   RESTART
 CPU TIMES  *         0.35      0.07      0.15      0.02
 REAL TIME  *         0.57 SEC
 DISK USED  *        49.44 MB
 **********************************************************************************************************************************
 Molecular orbitals read from record     2100.3  Type=RHF/CANONICAL (state 1.1)
 Occupation numbers read from record     2100.3  Type=RHF/RHF (state 1.1)
 Orbital energies read from record       2100.3  Type=RHF/CANONICAL (state 1.1)
 Redundancy group numbers read from rec  2100.3  Type=RHF/RHF (state 1.1)

 CISD/6-31G energy=   -115.503609349625

            CISD
   -115.50360935
 **********************************************************************************************************************************
 Molpro calculation terminated
