
 Primary working directories    : /scr/yuriaoto/job.023614/molpro.phlxZUDu37
 Secondary working directories  : /scr/yuriaoto/job.023614/molpro.phlxZUDu37
 Wavefunction directory         : /scr/yuriaoto/job.023614/
 Main file repository           : /scr/yuriaoto/job.023614/molpro.phlxZUDu37/

 id        : yuriaoto

 Nodes             nprocs
 t-rex.ufabc.int.br    1

 Using customized tuning parameters: mindgm=8; mindgv=16; mindgc=1; mindgr=1; noblas=0; minvec=7
 default implementation of scratch files=df  


 Variables initialized (933), CPU time= 0.01 sec
 ***,
 memory,40,m
 gprint,orbital,basis,civector
 gthresh,thrprint=0,printci=0.0
 file,3,wfu.dat,old
 
 {ccsd,CC_NORM_MAX=10.0
 nosingle
 thresh,printci=0.0,ENERGY=1.0E-10,COEFF=1.0E-12
 print,ref=1
 wf,18,1,0;
 }
 
 Commands  initialized (760), CPU time= 0.01 sec, 617 directives.
 Default parameters read. Elapsed time= 0.04 sec

 Checking input...
 Passed
1


                                         ***  PROGRAM SYSTEM MOLPRO  ***
                                       Copyright, TTI GmbH Stuttgart, 2015
                                    Version 2019.2 linked Abr  7 2019 15:10:35


 **********************************************************************************************************************************
 LABEL *                                                                                 
  64 bit serial version                                                                  DATE: 05-Jun-20          TIME: 21:39:21  
 **********************************************************************************************************************************

 SHA1:             3a8a58c585c929645742fb5a1b7541a4ad1da699
 **********************************************************************************************************************************


 THRESHOLDS:

 ZERO    =  1.00D-12  ONEINT  =  1.00D-12  TWOINT  =  1.00D-11  PREFAC  =  1.00D-14  XXXXXX  =  1.00D-09  EORDER  =  1.00D-04
 ENERGY  =  0.00D+00  ETEST   =  0.00D+00  EDENS   =  0.00D+00  THRDEDEF=  1.00D-06  GRADIENT=  1.00D-02  STEP    =  1.00D-03
 ORBITAL =  1.00D-05  CIVEC   =  1.00D-05  COEFF   =  1.00D-04  PRINTCI =  0.00D+00  PUNCHCI =  9.90D+01  OPTGRAD =  3.00D-04
 OPTENERG=  1.00D-06  OPTSTEP =  3.00D-04  THRGRAD =  1.00D-10  COMPRESS=  1.00D-11  VARMIN  =  1.00D-07  VARMAX  =  1.00D-03
 THRDOUB =  0.00D+00  THRDIV  =  1.00D-05  THRRED  =  1.00D-07  THRPSP  =  1.00D+00  THRDC   =  1.00D-10  THRCS   =  1.00D-10
 THRNRM  =  1.00D-08  THREQ   =  0.00D+00  THRDE   =  1.00D+00  THRREF  =  1.00D-05  SPARFAC =  1.00D+00  THRDLP  =  1.00D-07
 THRDIA  =  1.00D-10  THRDLS  =  1.00D-07  THRGPS  =  0.00D+00  THRKEX  =  0.00D+00  THRDIS  =  2.00D-01  THRVAR  =  1.00D-10
 THRLOC  =  1.00D-06  THRGAP  =  1.00D-06  THRLOCT = -1.00D+00  THRGAPT = -1.00D+00  THRORB  =  1.00D-06  THRMLTP =  0.00D+00
 THRCPQCI=  1.00D-10  KEXTA   =  0.00D+00  THRCOARS=  0.00D+00  SYMTOL  =  1.00D-06  GRADTOL =  1.00D-06  THROVL  =  1.00D-08
 THRORTH =  1.00D-08  GRID    =  1.00D-06  GRIDMAX =  1.00D-03  DTMAX   =  0.00D+00  THROCCDE=  1.00D-01  THROCCDE=  1.00D-01
 THRPRINT=  0.00D+00


 Variable memory set to   40000000 words,  buffer space 



 Permanent file  3  wfu.dat  assigned.  Implementation=df    Size= 14.09 MB


 PROGRAM * RESTART 


 Reading variables from file 3

 _FNUC           =      0.00000000
 _BASIS          =    6-31G
 _NELEC          =     18.00000000
 _PROGRAM        =    RHF-SCF
 _DMX            =     -0.00000000
 _DMY            =      0.00000000
 _DMZ            =     -0.64056631
 _DMX_SCF        =     -0.00000000
 _DMY_SCF        =      0.00000000
 _DMZ_SCF        =     -0.64056631
 _HOMO           =      9.10000000
 _EHOMO          =     -0.49295114
 _LUMO           =     10.10000000
 _ELUMO          =      0.32493986
 _ENERGY         =   -459.60831721
 _ENERGY_METHOD  =    RHF
 _ENERGY_BASIS   =    6-31G
 _ENUC           =     11.33333333
 _EPS1(1:15)     =   -104.81304708   -10.58851941    -8.06562950    -8.04437589    -8.04437589    -1.29348723
                       -0.68951886    -0.49295114    -0.49295114     0.32493986     0.41098157     0.59951917
                        0.61252576     0.61252576     1.47579847
 _IPROC_MPP      =      0.00000000
 _IPROC_MPPX     =      0.00000000
 _ORBITAL        =   2100.30000000
 _STATUS         =      1.00000000
 _DATE           =    31-May-20
 _LASTORB        =    RHF
 _OUTPUT         =    /scr/yuriaoto/job.023317/RHF.xml
 _PGROUP         =    C1  
 _TIME           =    01:23:49
 R               =      1.50000000

 Geometry written to block  1 of record 700


 **********************************************************************************************************************************
 DATASETS  * FILE   NREC   LENGTH (MB)   RECORD NAMES
              3       5       14.77       500      610      700     1000     2100   
                                          VAR    BASINP    GEOM     BASIS     RHF  

 PROGRAMS   *        TOTAL   RESTART
 CPU TIMES  *         0.11      0.01
 REAL TIME  *         0.15 SEC
 DISK USED  *        26.84 MB
 **********************************************************************************************************************************


 Recomputing integrals since basis changed


 Using spherical harmonics

 Library entry H      S 6-31G                selected for orbital group  1
 Library entry CL     S 6-31G                selected for orbital group  2
 Library entry CL     P 6-31G                selected for orbital group  2


 PROGRAM * SEWARD (Integral evaluation for generally contracted gaussian basis sets)     Author: Roland Lindh, 1990

 Geometry written to block  1 of record 700

 Orientation using atomic masses  
 Molecule type: Linear
 Rotational constants:     818.4131427    818.4131427      0.0000000 GHz  (calculated with average atomic masses)

 Point group  C1  



 ATOMIC COORDINATES

 NR  ATOM    CHARGE       X              Y              Z

   1  H       1.00    0.000000000    0.000000000   -1.458533433
   2  CL     17.00    0.000000000    0.000000000    0.041466567

 Bond lengths in Bohr (Angstrom)

 1-2  1.500000000
     ( 0.793765816)


 BASIS DATA

   Nr Sym  Nuc  Type         Exponents   Contraction coefficients

    1.1 A     1  1s          18.731137     0.033495
                              2.825394     0.234727
                              0.640122     0.813757
    2.1 A     1  1s           0.161278     1.000000
    3.1 A     2  1s       25180.100000     0.001833
                           3780.350000     0.014034
                            860.474000     0.069097
                            242.145000     0.237452
                             77.334900     0.483034
                             26.247000     0.339856
    4.1 A     2  1s         491.765000    -0.002297
                            116.984000    -0.030714
                             37.415300    -0.112528
                             13.783400     0.045016
                              5.452150     0.589353
                              2.225880     0.465206
    5.1 A     2  1s           3.186490    -0.251827
                              1.144270     0.061589
                              0.420377     1.060180
    6.1 A     2  1s           0.142657     1.000000
    7.1 A     2  2px        491.765000     0.003989
                            116.984000     0.030318
                             37.415300     0.129880
                             13.783400     0.327951
                              5.452150     0.453527
                              2.225880     0.252154
    8.1 A     2  2py        491.765000     0.003989
                            116.984000     0.030318
                             37.415300     0.129880
                             13.783400     0.327951
                              5.452150     0.453527
                              2.225880     0.252154
    9.1 A     2  2pz        491.765000     0.003989
                            116.984000     0.030318
                             37.415300     0.129880
                             13.783400     0.327951
                              5.452150     0.453527
                              2.225880     0.252154
   10.1 A     2  2px          3.186490    -0.014299
                              1.144270     0.323572
                              0.420377     0.743507
   11.1 A     2  2py          3.186490    -0.014299
                              1.144270     0.323572
                              0.420377     0.743507
   12.1 A     2  2pz          3.186490    -0.014299
                              1.144270     0.323572
                              0.420377     0.743507
   13.1 A     2  2px          0.142657     1.000000
   14.1 A     2  2py          0.142657     1.000000
   15.1 A     2  2pz          0.142657     1.000000

 NUCLEAR CHARGE:                   18
 NUMBER OF PRIMITIVE AOS:          50
 NUMBER OF SYMMETRY AOS:           50
 NUMBER OF CONTRACTIONS:           15   (   15A   )
 NUMBER OF CORE ORBITALS:           5   (    5A   )
 NUMBER OF VALENCE ORBITALS:        5   (    5A   )


 NUCLEAR REPULSION ENERGY   11.33333333

 EXTRA SYMMETRY OF AOS IN SYMMETRY 1:   1 1 1 1 1 1 2 3 1 2   3 1 2 3 1

 Eigenvalues of metric

         1 0.130E-01 0.193E+00 0.223E+00 0.323E+00 0.323E+00 0.485E+00 0.687E+00 0.942E+00


 Contracted 2-electron integrals neglected if value below      1.0D-11
 AO integral compression algorithm  1   Integral accuracy      1.0D-11

     0.262 MB (compressed) written to integral file ( 54.9%)


 NUMBER OF SORTED TWO-ELECTRON INTEGRALS:       7260.     BUFFER LENGTH:  32768
 NUMBER OF SEGMENTS:   1  SEGMENT LENGTH:       7260      RECORD LENGTH: 524288

 Memory used in sort:       0.56 MW

 SORT1 READ       16285. AND WROTE        1902. INTEGRALS IN      1 RECORDS. CPU TIME:     0.00 SEC, REAL TIME:     0.00 SEC
 SORT2 READ        1902. AND WROTE        7260. INTEGRALS IN      1 RECORDS. CPU TIME:     0.00 SEC, REAL TIME:     0.01 SEC

 FILE SIZES:   FILE 1:    30.2 MBYTE,  FILE 4:     4.2 MBYTE,   TOTAL:     34.4 MBYTE

 OPERATOR DM      FOR CENTER  0  COORDINATES:    0.000000    0.000000    0.000000


 **********************************************************************************************************************************
 DATASETS  * FILE   NREC   LENGTH (MB)   RECORD NAMES
              1      19       29.97       500      700      610      900      950      970     1000      129      960     1100   
                                          VAR     GEOM    BASINP   SYMINP    ZMAT    AOBASIS   BASIS     P2S    ABASIS      S 
                                         1400     1410     1200     1210     1080     1600     1650     1300     1700   
                                           T        V       H0       H01     AOSYM     SMH    MOLCAS    ERIS     OPER   

              3       5       14.77       500      610      700     1000     2100   
                                          VAR    BASINP    GEOM     BASIS     RHF  

 PROGRAMS   *        TOTAL       INT   RESTART
 CPU TIMES  *         0.26      0.15      0.01
 REAL TIME  *         0.45 SEC
 DISK USED  *        49.44 MB
 **********************************************************************************************************************************


 PROGRAM * CCSD (Closed-shell coupled cluster)     Authors: C. Hampel, H.-J. Werner, 1991, M. Deegan, P.J. Knowles, 1992


 Input parameters for THRESH:

 ENERGY   =    1.00D-10
 COEFF    =    1.00D-12
 PRINTCI  =    0.000000
 THRPRINT =    0.000000

 Convergence thresholds:  THRVAR = 1.00D-24  THRDEN = 1.00D-10

 Number of core orbitals:           5 (   5 )
 Number of closed-shell orbitals:   4 (   4 )
 Number of external orbitals:       6 (   6 )

 Molecular orbitals read from record     2100.3  Type=RHF/CANONICAL (state 1.1)

 Number of N-1 electron functions:               0
 Number of N-2 electron functions:              10
 Number of singly external CSFs:                 0
 Number of doubly external CSFs:               300
 Total number of CSFs:                         301

 Length of J-op  integral file:               0.00 MB
 Length of K-op  integral file:               0.05 MB
 Length of 3-ext integral record:             0.00 MB

 Integral transformation finished. Total CPU:   0.00 sec, npass=  1  Memory used:   0.08 MW

 Reference energy:                   -459.60831721

 MP2 singlet pair energy:              -0.02750203
 MP2 triplet pair energy:              -0.00962058
 MP2 correlation energy:               -0.03712261
 MP2 total energy:                   -459.64543983

 SCS-MP2 correlation energy:           -0.03898858   (PS=  1.200000  PT=  0.333333)
 SCS-MP2 total energy:               -459.64730579

 ITER.      SQ.NORM     CORR.ENERGY   TOTAL ENERGY   ENERGY CHANGE        DEN1      VAR(S)    VAR(P)  DIIS     TIME  TIME/IT
   1      1.01773287    -0.04382206  -459.65213927    -0.00669945    -0.00527841  0.00D+00  0.34D-03  1  1     0.02     0.01
   2      1.01937956    -0.04425220  -459.65256941    -0.00043014    -0.00182996  0.00D+00  0.64D-05  2  2     0.02     0.00
   3      1.01944203    -0.04425654  -459.65257375    -0.00000434    -0.00002024  0.00D+00  0.85D-07  3  3     0.02     0.00
   4      1.01945174    -0.04425768  -459.65257489    -0.00000114    -0.00000612  0.00D+00  0.15D-08  4  4     0.03     0.00
   5      1.01945208    -0.04425747  -459.65257468     0.00000021    -0.00000018  0.00D+00  0.58D-10  5  5     0.03     0.00
   6      1.01945207    -0.04425749  -459.65257470    -0.00000003     0.00000003  0.00D+00  0.57D-12  6  6     0.03     0.00
   7      1.01945206    -0.04425749  -459.65257470     0.00000000     0.00000001  0.00D+00  0.18D-13  6  1     0.04     0.00
   8      1.01945206    -0.04425749  -459.65257470    -0.00000000    -0.00000000  0.00D+00  0.77D-15  6  2     0.04     0.00
   9      1.01945206    -0.04425749  -459.65257470     0.00000000    -0.00000000  0.00D+00  0.97D-17  6  3     0.04     0.00
  10      1.01945206    -0.04425749  -459.65257470     0.00000000    -0.00000000  0.00D+00  0.23D-18  6  4     0.04     0.00
  11      1.01945206    -0.04425749  -459.65257470    -0.00000000     0.00000000  0.00D+00  0.57D-20  6  5     0.05     0.00
  12      1.01945206    -0.04425749  -459.65257470     0.00000000     0.00000000  0.00D+00  0.37D-21  6  6     0.05     0.00
  13      1.01945206    -0.04425749  -459.65257470     0.00000000    -0.00000000  0.00D+00  0.11D-22  6  1     0.05     0.00
  14      1.01945206    -0.04425749  -459.65257470     0.00000000     0.00000000  0.00D+00  0.29D-24  6  2     0.06     0.00


 Doubles amplitudes (print threshold =  0.000E+00):

         I         J         SYM. A    SYM. B    A         B      T(IJ, AB)

         1         1         1         1         1         1     -0.00794469
         1         1         1         1         1         2      0.00307369
         1         1         1         1         1         3     -0.00185026
         1         1         1         1         1         4      0.00000000
         1         1         1         1         1         5     -0.00000000
         1         1         1         1         1         6     -0.01075306
         1         1         1         1         2         1      0.00307369
         1         1         1         1         2         2     -0.01350899
         1         1         1         1         2         3      0.00050240
         1         1         1         1         2         4      0.00000000
         1         1         1         1         2         5     -0.00000000
         1         1         1         1         2         6     -0.00420901
         1         1         1         1         3         1     -0.00185026
         1         1         1         1         3         2      0.00050240
         1         1         1         1         3         3     -0.00382408
         1         1         1         1         3         4      0.00000000
         1         1         1         1         3         5     -0.00000000
         1         1         1         1         3         6     -0.00271803
         1         1         1         1         4         1      0.00000000
         1         1         1         1         4         2      0.00000000
         1         1         1         1         4         3      0.00000000
         1         1         1         1         4         4     -0.00661652
         1         1         1         1         4         5      0.00000000
         1         1         1         1         4         6      0.00000000
         1         1         1         1         5         1     -0.00000000
         1         1         1         1         5         2     -0.00000000
         1         1         1         1         5         3     -0.00000000
         1         1         1         1         5         4      0.00000000
         1         1         1         1         5         5     -0.00661652
         1         1         1         1         5         6     -0.00000000
         1         1         1         1         6         1     -0.01075306
         1         1         1         1         6         2     -0.00420901
         1         1         1         1         6         3     -0.00271803
         1         1         1         1         6         4      0.00000000
         1         1         1         1         6         5     -0.00000000
         1         1         1         1         6         6     -0.02235727
         2         1         1         1         1         1      0.00482999
         2         1         1         1         1         2      0.00076064
         2         1         1         1         1         3      0.00073677
         2         1         1         1         1         4     -0.00000000
         2         1         1         1         1         5      0.00000000
         2         1         1         1         1         6      0.00697144
         2         1         1         1         2         1     -0.00144678
         2         1         1         1         2         2      0.00950665
         2         1         1         1         2         3      0.00206631
         2         1         1         1         2         4     -0.00000000
         2         1         1         1         2         5      0.00000000
         2         1         1         1         2         6      0.00513659
         2         1         1         1         3         1     -0.00475725
         2         1         1         1         3         2      0.00701129
         2         1         1         1         3         3     -0.01015603
         2         1         1         1         3         4      0.00000000
         2         1         1         1         3         5     -0.00000000
         2         1         1         1         3         6     -0.00121023
         2         1         1         1         4         1     -0.00000000
         2         1         1         1         4         2     -0.00000000
         2         1         1         1         4         3      0.00000000
         2         1         1         1         4         4     -0.00401033
         2         1         1         1         4         5     -0.00000000
         2         1         1         1         4         6     -0.00000000
         2         1         1         1         5         1      0.00000000
         2         1         1         1         5         2      0.00000000
         2         1         1         1         5         3      0.00000000
         2         1         1         1         5         4      0.00000000
         2         1         1         1         5         5     -0.00401033
         2         1         1         1         5         6     -0.00000000
         2         1         1         1         6         1      0.00671319
         2         1         1         1         6         2      0.00834298
         2         1         1         1         6         3      0.00443701
         2         1         1         1         6         4     -0.00000000
         2         1         1         1         6         5     -0.00000000
         2         1         1         1         6         6      0.01548978
         2         2         1         1         1         1     -0.02244036
         2         2         1         1         1         2     -0.00715130
         2         2         1         1         1         3      0.00300306
         2         2         1         1         1         4     -0.00000000
         2         2         1         1         1         5      0.00000000
         2         2         1         1         1         6     -0.01568313
         2         2         1         1         2         1     -0.00715130
         2         2         1         1         2         2     -0.00979310
         2         2         1         1         2         3     -0.00102448
         2         2         1         1         2         4     -0.00000000
         2         2         1         1         2         5      0.00000000
         2         2         1         1         2         6     -0.01078978
         2         2         1         1         3         1      0.00300306
         2         2         1         1         3         2     -0.00102448
         2         2         1         1         3         3     -0.03035120
         2         2         1         1         3         4     -0.00000000
         2         2         1         1         3         5      0.00000000
         2         2         1         1         3         6      0.00877172
         2         2         1         1         4         1     -0.00000000
         2         2         1         1         4         2     -0.00000000
         2         2         1         1         4         3     -0.00000000
         2         2         1         1         4         4     -0.00542746
         2         2         1         1         4         5     -0.00000000
         2         2         1         1         4         6      0.00000000
         2         2         1         1         5         1      0.00000000
         2         2         1         1         5         2      0.00000000
         2         2         1         1         5         3      0.00000000
         2         2         1         1         5         4     -0.00000000
         2         2         1         1         5         5     -0.00542746
         2         2         1         1         5         6     -0.00000000
         2         2         1         1         6         1     -0.01568313
         2         2         1         1         6         2     -0.01078978
         2         2         1         1         6         3      0.00877172
         2         2         1         1         6         4      0.00000000
         2         2         1         1         6         5     -0.00000000
         2         2         1         1         6         6     -0.02267833
         3         1         1         1         1         1      0.00000000
         3         1         1         1         1         2     -0.00000000
         3         1         1         1         1         3     -0.00000000
         3         1         1         1         1         4     -0.00639899
         3         1         1         1         1         5      0.00112468
         3         1         1         1         1         6      0.00000000
         3         1         1         1         2         1     -0.00000000
         3         1         1         1         2         2      0.00000000
         3         1         1         1         2         3     -0.00000000
         3         1         1         1         2         4      0.00204433
         3         1         1         1         2         5     -0.00035931
         3         1         1         1         2         6      0.00000000
         3         1         1         1         3         1      0.00000000
         3         1         1         1         3         2     -0.00000000
         3         1         1         1         3         3      0.00000000
         3         1         1         1         3         4     -0.00483289
         3         1         1         1         3         5      0.00084943
         3         1         1         1         3         6      0.00000000
         3         1         1         1         4         1     -0.00967491
         3         1         1         1         4         2      0.01179120
         3         1         1         1         4         3     -0.00895185
         3         1         1         1         4         4     -0.00000000
         3         1         1         1         4         5      0.00000000
         3         1         1         1         4         6     -0.00798667
         3         1         1         1         5         1      0.00170046
         3         1         1         1         5         2     -0.00207242
         3         1         1         1         5         3      0.00157338
         3         1         1         1         5         4      0.00000000
         3         1         1         1         5         5     -0.00000000
         3         1         1         1         5         6      0.00140374
         3         1         1         1         6         1      0.00000000
         3         1         1         1         6         2      0.00000000
         3         1         1         1         6         3      0.00000000
         3         1         1         1         6         4     -0.00662331
         3         1         1         1         6         5      0.00116411
         3         1         1         1         6         6      0.00000000
         3         2         1         1         1         1     -0.00000000
         3         2         1         1         1         2     -0.00000000
         3         2         1         1         1         3     -0.00000000
         3         2         1         1         1         4     -0.00207718
         3         2         1         1         1         5      0.00036509
         3         2         1         1         1         6      0.00000000
         3         2         1         1         2         1     -0.00000000
         3         2         1         1         2         2      0.00000000
         3         2         1         1         2         3     -0.00000000
         3         2         1         1         2         4      0.00103074
         3         2         1         1         2         5     -0.00018116
         3         2         1         1         2         6     -0.00000000
         3         2         1         1         3         1     -0.00000000
         3         2         1         1         3         2     -0.00000000
         3         2         1         1         3         3      0.00000000
         3         2         1         1         3         4     -0.00894797
         3         2         1         1         3         5      0.00157269
         3         2         1         1         3         6      0.00000000
         3         2         1         1         4         1      0.00034620
         3         2         1         1         4         2     -0.00332173
         3         2         1         1         4         3     -0.02372362
         3         2         1         1         4         4     -0.00000000
         3         2         1         1         4         5      0.00000000
         3         2         1         1         4         6      0.00269628
         3         2         1         1         5         1     -0.00006085
         3         2         1         1         5         2      0.00058383
         3         2         1         1         5         3      0.00416966
         3         2         1         1         5         4      0.00000000
         3         2         1         1         5         5     -0.00000000
         3         2         1         1         5         6     -0.00047390
         3         2         1         1         6         1      0.00000000
         3         2         1         1         6         2     -0.00000000
         3         2         1         1         6         3      0.00000000
         3         2         1         1         6         4     -0.00048630
         3         2         1         1         6         5      0.00008547
         3         2         1         1         6         6     -0.00000000
         3         3         1         1         1         1     -0.00919195
         3         3         1         1         1         2     -0.00397400
         3         3         1         1         1         3     -0.00068374
         3         3         1         1         1         4     -0.00000000
         3         3         1         1         1         5      0.00000000
         3         3         1         1         1         6     -0.00618703
         3         3         1         1         2         1     -0.00397400
         3         3         1         1         2         2     -0.01243349
         3         3         1         1         2         3      0.00712597
         3         3         1         1         2         4      0.00000000
         3         3         1         1         2         5     -0.00000000
         3         3         1         1         2         6     -0.00090069
         3         3         1         1         3         1     -0.00068374
         3         3         1         1         3         2      0.00712597
         3         3         1         1         3         3     -0.01064625
         3         3         1         1         3         4     -0.00000000
         3         3         1         1         3         5      0.00000000
         3         3         1         1         3         6     -0.00123972
         3         3         1         1         4         1     -0.00000000
         3         3         1         1         4         2      0.00000000
         3         3         1         1         4         3     -0.00000000
         3         3         1         1         4         4     -0.03921100
         3         3         1         1         4         5      0.00622405
         3         3         1         1         4         6     -0.00000000
         3         3         1         1         5         1      0.00000000
         3         3         1         1         5         2     -0.00000000
         3         3         1         1         5         3      0.00000000
         3         3         1         1         5         4      0.00622405
         3         3         1         1         5         5     -0.00489265
         3         3         1         1         5         6      0.00000000
         3         3         1         1         6         1     -0.00618703
         3         3         1         1         6         2     -0.00090069
         3         3         1         1         6         3     -0.00123972
         3         3         1         1         6         4     -0.00000000
         3         3         1         1         6         5      0.00000000
         3         3         1         1         6         6     -0.00583420
         4         1         1         1         1         1     -0.00000000
         4         1         1         1         1         2      0.00000000
         4         1         1         1         1         3      0.00000000
         4         1         1         1         1         4     -0.00112468
         4         1         1         1         1         5     -0.00639899
         4         1         1         1         1         6     -0.00000000
         4         1         1         1         2         1      0.00000000
         4         1         1         1         2         2     -0.00000000
         4         1         1         1         2         3      0.00000000
         4         1         1         1         2         4      0.00035931
         4         1         1         1         2         5      0.00204433
         4         1         1         1         2         6     -0.00000000
         4         1         1         1         3         1      0.00000000
         4         1         1         1         3         2      0.00000000
         4         1         1         1         3         3     -0.00000000
         4         1         1         1         3         4     -0.00084943
         4         1         1         1         3         5     -0.00483289
         4         1         1         1         3         6     -0.00000000
         4         1         1         1         4         1     -0.00170046
         4         1         1         1         4         2      0.00207242
         4         1         1         1         4         3     -0.00157338
         4         1         1         1         4         4      0.00000000
         4         1         1         1         4         5     -0.00000000
         4         1         1         1         4         6     -0.00140374
         4         1         1         1         5         1     -0.00967491
         4         1         1         1         5         2      0.01179120
         4         1         1         1         5         3     -0.00895185
         4         1         1         1         5         4     -0.00000000
         4         1         1         1         5         5      0.00000000
         4         1         1         1         5         6     -0.00798667
         4         1         1         1         6         1     -0.00000000
         4         1         1         1         6         2     -0.00000000
         4         1         1         1         6         3     -0.00000000
         4         1         1         1         6         4     -0.00116411
         4         1         1         1         6         5     -0.00662331
         4         1         1         1         6         6      0.00000000
         4         2         1         1         1         1      0.00000000
         4         2         1         1         1         2      0.00000000
         4         2         1         1         1         3      0.00000000
         4         2         1         1         1         4     -0.00036509
         4         2         1         1         1         5     -0.00207718
         4         2         1         1         1         6     -0.00000000
         4         2         1         1         2         1      0.00000000
         4         2         1         1         2         2     -0.00000000
         4         2         1         1         2         3      0.00000000
         4         2         1         1         2         4      0.00018116
         4         2         1         1         2         5      0.00103074
         4         2         1         1         2         6      0.00000000
         4         2         1         1         3         1      0.00000000
         4         2         1         1         3         2      0.00000000
         4         2         1         1         3         3     -0.00000000
         4         2         1         1         3         4     -0.00157269
         4         2         1         1         3         5     -0.00894797
         4         2         1         1         3         6     -0.00000000
         4         2         1         1         4         1      0.00006085
         4         2         1         1         4         2     -0.00058383
         4         2         1         1         4         3     -0.00416966
         4         2         1         1         4         4      0.00000000
         4         2         1         1         4         5     -0.00000000
         4         2         1         1         4         6      0.00047390
         4         2         1         1         5         1      0.00034620
         4         2         1         1         5         2     -0.00332173
         4         2         1         1         5         3     -0.02372362
         4         2         1         1         5         4     -0.00000000
         4         2         1         1         5         5      0.00000000
         4         2         1         1         5         6      0.00269628
         4         2         1         1         6         1     -0.00000000
         4         2         1         1         6         2      0.00000000
         4         2         1         1         6         3     -0.00000000
         4         2         1         1         6         4     -0.00008547
         4         2         1         1         6         5     -0.00048630
         4         2         1         1         6         6      0.00000000
         4         3         1         1         1         1      0.00000000
         4         3         1         1         1         2      0.00000000
         4         3         1         1         1         3     -0.00000000
         4         3         1         1         1         4      0.00000000
         4         3         1         1         1         5     -0.00000000
         4         3         1         1         1         6     -0.00000000
         4         3         1         1         2         1     -0.00000000
         4         3         1         1         2         2      0.00000000
         4         3         1         1         2         3     -0.00000000
         4         3         1         1         2         4     -0.00000000
         4         3         1         1         2         5      0.00000000
         4         3         1         1         2         6      0.00000000
         4         3         1         1         3         1      0.00000000
         4         3         1         1         3         2     -0.00000000
         4         3         1         1         3         3      0.00000000
         4         3         1         1         3         4      0.00000000
         4         3         1         1         3         5     -0.00000000
         4         3         1         1         3         6     -0.00000000
         4         3         1         1         4         1      0.00000000
         4         3         1         1         4         2     -0.00000000
         4         3         1         1         4         3      0.00000000
         4         3         1         1         4         4     -0.00622405
         4         3         1         1         4         5     -0.00674298
         4         3         1         1         4         6      0.00000000
         4         3         1         1         5         1      0.00000000
         4         3         1         1         5         2      0.00000000
         4         3         1         1         5         3     -0.00000000
         4         3         1         1         5         4     -0.02757537
         4         3         1         1         5         5      0.00622405
         4         3         1         1         5         6      0.00000000
         4         3         1         1         6         1     -0.00000000
         4         3         1         1         6         2     -0.00000000
         4         3         1         1         6         3      0.00000000
         4         3         1         1         6         4     -0.00000000
         4         3         1         1         6         5     -0.00000000
         4         3         1         1         6         6      0.00000000
         4         4         1         1         1         1     -0.00919195
         4         4         1         1         1         2     -0.00397400
         4         4         1         1         1         3     -0.00068374
         4         4         1         1         1         4     -0.00000000
         4         4         1         1         1         5      0.00000000
         4         4         1         1         1         6     -0.00618703
         4         4         1         1         2         1     -0.00397400
         4         4         1         1         2         2     -0.01243349
         4         4         1         1         2         3      0.00712597
         4         4         1         1         2         4      0.00000000
         4         4         1         1         2         5     -0.00000000
         4         4         1         1         2         6     -0.00090069
         4         4         1         1         3         1     -0.00068374
         4         4         1         1         3         2      0.00712597
         4         4         1         1         3         3     -0.01064625
         4         4         1         1         3         4     -0.00000000
         4         4         1         1         3         5      0.00000000
         4         4         1         1         3         6     -0.00123972
         4         4         1         1         4         1     -0.00000000
         4         4         1         1         4         2      0.00000000
         4         4         1         1         4         3     -0.00000000
         4         4         1         1         4         4     -0.00489265
         4         4         1         1         4         5     -0.00622405
         4         4         1         1         4         6      0.00000000
         4         4         1         1         5         1      0.00000000
         4         4         1         1         5         2     -0.00000000
         4         4         1         1         5         3      0.00000000
         4         4         1         1         5         4     -0.00622405
         4         4         1         1         5         5     -0.03921100
         4         4         1         1         5         6      0.00000000
         4         4         1         1         6         1     -0.00618703
         4         4         1         1         6         2     -0.00090069
         4         4         1         1         6         3     -0.00123972
         4         4         1         1         6         4      0.00000000
         4         4         1         1         6         5      0.00000000
         4         4         1         1         6         6     -0.00583420


 RESULTS
 =======

  Reference energy                   -459.608317213097
  CCD singlet pair energy              -0.034530576863
  CCD triplet pair energy              -0.009726911822
  CCD correlation energy               -0.044257488686

 !CCD total energy                   -459.652574701782

 Timing summary (sec):

 STEP                 CPU(USER)    SYS     CPU(TOT)    WALL
 CCSD iterations         0.06      0.02      0.08      0.06

 Program statistics:

 Available memory in ccsd:                39999136
 Min. memory needed in ccsd:                  4198
 Max. memory used in ccsd:                    4198
 Max. memory used in cckext:                 39104 (14 integral passes)



 **********************************************************************************************************************************
 DATASETS  * FILE   NREC   LENGTH (MB)   RECORD NAMES
              1      20       30.01       500      700      610      900      950      970     1000      129      960     1100   
                                          VAR     GEOM    BASINP   SYMINP    ZMAT    AOBASIS   BASIS     P2S    ABASIS      S 
                                         1400     1410     1200     1210     1080     1600     1650     1300     1700     1380   
                                           T        V       H0       H01     AOSYM     SMH    MOLCAS    ERIS     OPER     JKOP   

              3       5       14.77       500      610      700     1000     2100   
                                          VAR    BASINP    GEOM     BASIS     RHF  

 PROGRAMS   *        TOTAL      CCSD       INT   RESTART
 CPU TIMES  *         0.39      0.13      0.15      0.01
 REAL TIME  *         0.60 SEC
 DISK USED  *        49.44 MB
 **********************************************************************************************************************************
 Molecular orbitals read from record     2100.3  Type=RHF/CANONICAL (state 1.1)
 Occupation numbers read from record     2100.3  Type=RHF/RHF (state 1.1)
 Orbital energies read from record       2100.3  Type=RHF/CANONICAL (state 1.1)
 Redundancy group numbers read from rec  2100.3  Type=RHF/RHF (state 1.1)

 CCSD/6-31G energy=   -459.652574701782

            CCSD
   -459.65257470
 **********************************************************************************************************************************
 Molpro calculation terminated
