
 Primary working directories    : /scr/yuriaoto/job.023410/molpro.oJCu558bEh
 Secondary working directories  : /scr/yuriaoto/job.023410/molpro.oJCu558bEh
 Wavefunction directory         : /scr/yuriaoto/job.023410/
 Main file repository           : /scr/yuriaoto/job.023410/molpro.oJCu558bEh/

 id        : yuriaoto

 Nodes             nprocs
 t-rex.ufabc.int.br    1

 Using customized tuning parameters: mindgm=8; mindgv=16; mindgc=1; mindgr=1; noblas=0; minvec=7
 default implementation of scratch files=df  


 Variables initialized (933), CPU time= 0.00 sec
 ***,
 memory,40,m
 gprint,orbital,basis,civector
 gthresh,thrprint=0,printci=0.0
 file,3,wfu.dat,old
 
 {ccsd,CC_NORM_MAX=10.0
 thresh,printci=0.0,ENERGY=1.0E-10,COEFF=1.0E-12
 print,ref=1
 core,0
 wf,18,1,0;
 }
 
 Commands  initialized (760), CPU time= 0.01 sec, 617 directives.
 Default parameters read. Elapsed time= 0.04 sec

 Checking input...
 Passed
1


                                         ***  PROGRAM SYSTEM MOLPRO  ***
                                       Copyright, TTI GmbH Stuttgart, 2015
                                    Version 2019.2 linked Abr  7 2019 15:10:35


 **********************************************************************************************************************************
 LABEL *                                                                                 
  64 bit serial version                                                                  DATE: 02-Jun-20          TIME: 00:23:01  
 **********************************************************************************************************************************

 SHA1:             3a8a58c585c929645742fb5a1b7541a4ad1da699
 **********************************************************************************************************************************


 THRESHOLDS:

 ZERO    =  1.00D-12  ONEINT  =  1.00D-12  TWOINT  =  1.00D-11  PREFAC  =  1.00D-14  XXXXXX  =  1.00D-09  EORDER  =  1.00D-04
 ENERGY  =  0.00D+00  ETEST   =  0.00D+00  EDENS   =  0.00D+00  THRDEDEF=  1.00D-06  GRADIENT=  1.00D-02  STEP    =  1.00D-03
 ORBITAL =  1.00D-05  CIVEC   =  1.00D-05  COEFF   =  1.00D-04  PRINTCI =  0.00D+00  PUNCHCI =  9.90D+01  OPTGRAD =  3.00D-04
 OPTENERG=  1.00D-06  OPTSTEP =  3.00D-04  THRGRAD =  1.00D-10  COMPRESS=  1.00D-11  VARMIN  =  1.00D-07  VARMAX  =  1.00D-03
 THRDOUB =  0.00D+00  THRDIV  =  1.00D-05  THRRED  =  1.00D-07  THRPSP  =  1.00D+00  THRDC   =  1.00D-10  THRCS   =  1.00D-10
 THRNRM  =  1.00D-08  THREQ   =  0.00D+00  THRDE   =  1.00D+00  THRREF  =  1.00D-05  SPARFAC =  1.00D+00  THRDLP  =  1.00D-07
 THRDIA  =  1.00D-10  THRDLS  =  1.00D-07  THRGPS  =  0.00D+00  THRKEX  =  0.00D+00  THRDIS  =  2.00D-01  THRVAR  =  1.00D-10
 THRLOC  =  1.00D-06  THRGAP  =  1.00D-06  THRLOCT = -1.00D+00  THRGAPT = -1.00D+00  THRORB  =  1.00D-06  THRMLTP =  0.00D+00
 THRCPQCI=  1.00D-10  KEXTA   =  0.00D+00  THRCOARS=  0.00D+00  SYMTOL  =  1.00D-06  GRADTOL =  1.00D-06  THROVL  =  1.00D-08
 THRORTH =  1.00D-08  GRID    =  1.00D-06  GRIDMAX =  1.00D-03  DTMAX   =  0.00D+00  THROCCDE=  1.00D-01  THROCCDE=  1.00D-01
 THRPRINT=  0.00D+00


 Variable memory set to   40000000 words,  buffer space 



 Permanent file  3  wfu.dat  assigned.  Implementation=df    Size= 14.09 MB


 PROGRAM * RESTART 


 Reading variables from file 3

 _FNUC           =      0.00000000
 _BASIS          =    6-31G
 _NELEC          =     18.00000000
 _PROGRAM        =    RHF-SCF
 _DMX            =     -0.00000000
 _DMY            =      0.00000000
 _DMZ            =     -0.64056631
 _DMX_SCF        =     -0.00000000
 _DMY_SCF        =      0.00000000
 _DMZ_SCF        =     -0.64056631
 _HOMO           =      9.10000000
 _EHOMO          =     -0.49295114
 _LUMO           =     10.10000000
 _ELUMO          =      0.32493986
 _ENERGY         =   -459.60831721
 _ENERGY_METHOD  =    RHF
 _ENERGY_BASIS   =    6-31G
 _ENUC           =     11.33333333
 _EPS1(1:15)     =   -104.81304708   -10.58851941    -8.06562950    -8.04437589    -8.04437589    -1.29348723
                       -0.68951886    -0.49295114    -0.49295114     0.32493986     0.41098157     0.59951917
                        0.61252576     0.61252576     1.47579847
 _IPROC_MPP      =      0.00000000
 _IPROC_MPPX     =      0.00000000
 _ORBITAL        =   2100.30000000
 _STATUS         =      1.00000000
 _DATE           =    31-May-20
 _LASTORB        =    RHF
 _OUTPUT         =    /scr/yuriaoto/job.023317/RHF.xml
 _PGROUP         =    C1  
 _TIME           =    01:23:49
 R               =      1.50000000

 Geometry written to block  1 of record 700


 **********************************************************************************************************************************
 DATASETS  * FILE   NREC   LENGTH (MB)   RECORD NAMES
              3       5       14.77       500      610      700     1000     2100   
                                          VAR    BASINP    GEOM     BASIS     RHF  

 PROGRAMS   *        TOTAL   RESTART
 CPU TIMES  *         0.12      0.01
 REAL TIME  *         0.14 SEC
 DISK USED  *        26.84 MB
 **********************************************************************************************************************************


 Recomputing integrals since basis changed


 Using spherical harmonics

 Library entry H      S 6-31G                selected for orbital group  1
 Library entry CL     S 6-31G                selected for orbital group  2
 Library entry CL     P 6-31G                selected for orbital group  2


 PROGRAM * SEWARD (Integral evaluation for generally contracted gaussian basis sets)     Author: Roland Lindh, 1990

 Geometry written to block  1 of record 700

 Orientation using atomic masses  
 Molecule type: Linear
 Rotational constants:     818.4131427    818.4131427      0.0000000 GHz  (calculated with average atomic masses)

 Point group  C1  



 ATOMIC COORDINATES

 NR  ATOM    CHARGE       X              Y              Z

   1  H       1.00    0.000000000    0.000000000   -1.458533433
   2  CL     17.00    0.000000000    0.000000000    0.041466567

 Bond lengths in Bohr (Angstrom)

 1-2  1.500000000
     ( 0.793765816)


 BASIS DATA

   Nr Sym  Nuc  Type         Exponents   Contraction coefficients

    1.1 A     1  1s          18.731137     0.033495
                              2.825394     0.234727
                              0.640122     0.813757
    2.1 A     1  1s           0.161278     1.000000
    3.1 A     2  1s       25180.100000     0.001833
                           3780.350000     0.014034
                            860.474000     0.069097
                            242.145000     0.237452
                             77.334900     0.483034
                             26.247000     0.339856
    4.1 A     2  1s         491.765000    -0.002297
                            116.984000    -0.030714
                             37.415300    -0.112528
                             13.783400     0.045016
                              5.452150     0.589353
                              2.225880     0.465206
    5.1 A     2  1s           3.186490    -0.251827
                              1.144270     0.061589
                              0.420377     1.060180
    6.1 A     2  1s           0.142657     1.000000
    7.1 A     2  2px        491.765000     0.003989
                            116.984000     0.030318
                             37.415300     0.129880
                             13.783400     0.327951
                              5.452150     0.453527
                              2.225880     0.252154
    8.1 A     2  2py        491.765000     0.003989
                            116.984000     0.030318
                             37.415300     0.129880
                             13.783400     0.327951
                              5.452150     0.453527
                              2.225880     0.252154
    9.1 A     2  2pz        491.765000     0.003989
                            116.984000     0.030318
                             37.415300     0.129880
                             13.783400     0.327951
                              5.452150     0.453527
                              2.225880     0.252154
   10.1 A     2  2px          3.186490    -0.014299
                              1.144270     0.323572
                              0.420377     0.743507
   11.1 A     2  2py          3.186490    -0.014299
                              1.144270     0.323572
                              0.420377     0.743507
   12.1 A     2  2pz          3.186490    -0.014299
                              1.144270     0.323572
                              0.420377     0.743507
   13.1 A     2  2px          0.142657     1.000000
   14.1 A     2  2py          0.142657     1.000000
   15.1 A     2  2pz          0.142657     1.000000

 NUCLEAR CHARGE:                   18
 NUMBER OF PRIMITIVE AOS:          50
 NUMBER OF SYMMETRY AOS:           50
 NUMBER OF CONTRACTIONS:           15   (   15A   )
 NUMBER OF CORE ORBITALS:           5   (    5A   )
 NUMBER OF VALENCE ORBITALS:        5   (    5A   )


 NUCLEAR REPULSION ENERGY   11.33333333

 EXTRA SYMMETRY OF AOS IN SYMMETRY 1:   1 1 1 1 1 1 2 3 1 2   3 1 2 3 1

 Eigenvalues of metric

         1 0.130E-01 0.193E+00 0.223E+00 0.323E+00 0.323E+00 0.485E+00 0.687E+00 0.942E+00


 Contracted 2-electron integrals neglected if value below      1.0D-11
 AO integral compression algorithm  1   Integral accuracy      1.0D-11

     0.262 MB (compressed) written to integral file ( 54.9%)


 NUMBER OF SORTED TWO-ELECTRON INTEGRALS:       7260.     BUFFER LENGTH:  32768
 NUMBER OF SEGMENTS:   1  SEGMENT LENGTH:       7260      RECORD LENGTH: 524288

 Memory used in sort:       0.56 MW

 SORT1 READ       16285. AND WROTE        1902. INTEGRALS IN      1 RECORDS. CPU TIME:     0.00 SEC, REAL TIME:     0.00 SEC
 SORT2 READ        1902. AND WROTE        7260. INTEGRALS IN      1 RECORDS. CPU TIME:     0.01 SEC, REAL TIME:     0.01 SEC

 FILE SIZES:   FILE 1:    30.2 MBYTE,  FILE 4:     4.2 MBYTE,   TOTAL:     34.4 MBYTE

 OPERATOR DM      FOR CENTER  0  COORDINATES:    0.000000    0.000000    0.000000


 **********************************************************************************************************************************
 DATASETS  * FILE   NREC   LENGTH (MB)   RECORD NAMES
              1      19       29.97       500      700      610      900      950      970     1000      129      960     1100   
                                          VAR     GEOM    BASINP   SYMINP    ZMAT    AOBASIS   BASIS     P2S    ABASIS      S 
                                         1400     1410     1200     1210     1080     1600     1650     1300     1700   
                                           T        V       H0       H01     AOSYM     SMH    MOLCAS    ERIS     OPER   

              3       5       14.77       500      610      700     1000     2100   
                                          VAR    BASINP    GEOM     BASIS     RHF  

 PROGRAMS   *        TOTAL       INT   RESTART
 CPU TIMES  *         0.28      0.16      0.01
 REAL TIME  *         0.45 SEC
 DISK USED  *        49.44 MB
 **********************************************************************************************************************************


 PROGRAM * CCSD (Closed-shell coupled cluster)     Authors: C. Hampel, H.-J. Werner, 1991, M. Deegan, P.J. Knowles, 1992


 Input parameters for THRESH:

 ENERGY   =    1.00D-10
 COEFF    =    1.00D-12
 PRINTCI  =    0.000000
 THRPRINT =    0.000000

 Convergence thresholds:  THRVAR = 1.00D-24  THRDEN = 1.00D-10

 Number of closed-shell orbitals:   9 (   9 )
 Number of external orbitals:       6 (   6 )

 Molecular orbitals read from record     2100.3  Type=RHF/CANONICAL (state 1.1)

 Number of N-1 electron functions:               9
 Number of N-2 electron functions:              45
 Number of singly external CSFs:                54
 Number of doubly external CSFs:              1485
 Total number of CSFs:                        1540

 Length of J-op  integral file:               0.00 MB
 Length of K-op  integral file:               0.05 MB
 Length of 3-ext integral record:             0.00 MB

 Integral transformation finished. Total CPU:   0.00 sec, npass=  1  Memory used:   0.10 MW

 Reference energy:                   -459.60831721

 MP2 singlet pair energy:              -0.02869034
 MP2 triplet pair energy:              -0.01086841
 MP2 correlation energy:               -0.03955875
 MP2 total energy:                   -459.64787597

 SCS-MP2 correlation energy:           -0.04119098   (PS=  1.200000  PT=  0.333333)
 SCS-MP2 total energy:               -459.64950819

 ITER.      SQ.NORM     CORR.ENERGY   TOTAL ENERGY   ENERGY CHANGE        DEN1      VAR(S)    VAR(P)  DIIS     TIME  TIME/IT
   1      1.01792783    -0.04620147  -459.65451868    -0.00664271    -0.00495840  0.18D-03  0.33D-03  1  1     0.03     0.01
   2      1.01983161    -0.04666346  -459.65498068    -0.00046200    -0.00194854  0.21D-05  0.85D-05  2  2     0.04     0.01
   3      1.02006922    -0.04665979  -459.65497700     0.00000368    -0.00018289  0.11D-06  0.67D-06  3  3     0.05     0.01
   4      1.02010020    -0.04665979  -459.65497700    -0.00000000    -0.00001237  0.94D-08  0.88D-08  4  4     0.06     0.01
   5      1.02010032    -0.04666081  -459.65497802    -0.00000102    -0.00000004  0.32D-09  0.26D-09  5  5     0.07     0.01
   6      1.02010008    -0.04666085  -459.65497806    -0.00000004     0.00000016  0.22D-10  0.11D-10  6  6     0.08     0.01
   7      1.02010008    -0.04666083  -459.65497804     0.00000002     0.00000001  0.67D-12  0.44D-12  6  3     0.09     0.01
   8      1.02010009    -0.04666082  -459.65497804     0.00000000    -0.00000000  0.19D-13  0.26D-13  6  1     0.09     0.01
   9      1.02010009    -0.04666082  -459.65497804    -0.00000000    -0.00000000  0.46D-15  0.56D-15  6  2     0.10     0.01
  10      1.02010009    -0.04666082  -459.65497804    -0.00000000     0.00000000  0.37D-16  0.34D-16  6  4     0.11     0.01
  11      1.02010009    -0.04666082  -459.65497804     0.00000000    -0.00000000  0.17D-17  0.19D-17  6  5     0.12     0.01
  12      1.02010009    -0.04666082  -459.65497804     0.00000000    -0.00000000  0.49D-19  0.76D-19  6  6     0.12     0.01
  13      1.02010009    -0.04666082  -459.65497804    -0.00000000    -0.00000000  0.69D-21  0.24D-20  6  3     0.13     0.01
  14      1.02010009    -0.04666082  -459.65497804    -0.00000000    -0.00000000  0.50D-22  0.71D-22  6  1     0.13     0.01
  15      1.02010009    -0.04666082  -459.65497804     0.00000000     0.00000000  0.60D-23  0.44D-23  6  2     0.14     0.01
  16      1.02010009    -0.04666082  -459.65497804     0.00000000    -0.00000000  0.23D-24  0.20D-24  6  4     0.14     0.01

 Norm of t1 vector:      0.01921218      S-energy:     0.00000000      T1 diagnostic:  0.00320203
                                                                       D1 diagnostic:  0.00781536

 Singles amplitudes (print threshold =  0.000E+00):

         I         SYM. A    A   T(IA)

         1         1         1      0.00000109
         1         1         2     -0.00000143
         1         1         3      0.00000330
         1         1         4     -0.00000000
         1         1         5     -0.00000000
         1         1         6      0.00000123
         2         1         1     -0.00011995
         2         1         2      0.00011334
         2         1         3     -0.00021075
         2         1         4     -0.00000000
         2         1         5      0.00000000
         2         1         6     -0.00013025
         3         1         1      0.00019070
         3         1         2     -0.00019382
         3         1         3     -0.00037057
         3         1         4     -0.00000000
         3         1         5      0.00000000
         3         1         6      0.00034388
         4         1         1      0.00000000
         4         1         2     -0.00000000
         4         1         3     -0.00000000
         4         1         4      0.00059859
         4         1         5      0.00004543
         4         1         6      0.00000000
         5         1         1      0.00000000
         5         1         2     -0.00000000
         5         1         3     -0.00000000
         5         1         4      0.00004543
         5         1         5     -0.00059859
         5         1         6      0.00000000
         6         1         1     -0.00001459
         6         1         2     -0.00330913
         6         1         3      0.00180349
         6         1         4      0.00000000
         6         1         5     -0.00000000
         6         1         6     -0.00063580
         7         1         1     -0.00095451
         7         1         2      0.00211724
         7         1         3      0.00637650
         7         1         4      0.00000000
         7         1         5     -0.00000000
         7         1         6     -0.00114680
         8         1         1     -0.00000000
         8         1         2     -0.00000000
         8         1         3     -0.00000000
         8         1         4      0.00767463
         8         1         5     -0.00134889
         8         1         6     -0.00000000
         9         1         1     -0.00000000
         9         1         2      0.00000000
         9         1         3      0.00000000
         9         1         4      0.00134889
         9         1         5      0.00767463
         9         1         6      0.00000000

 Doubles amplitudes (print threshold =  0.000E+00):

         I         J         SYM. A    SYM. B    A         B      T(IJ, AB)

         1         1         1         1         1         1     -0.00000751
         1         1         1         1         1         2      0.00001296
         1         1         1         1         1         3     -0.00000678
         1         1         1         1         1         4      0.00000000
         1         1         1         1         1         5      0.00000000
         1         1         1         1         1         6     -0.00001918
         1         1         1         1         2         1      0.00001296
         1         1         1         1         2         2     -0.00001384
         1         1         1         1         2         3      0.00000808
         1         1         1         1         2         4      0.00000000
         1         1         1         1         2         5     -0.00000000
         1         1         1         1         2         6      0.00002727
         1         1         1         1         3         1     -0.00000678
         1         1         1         1         3         2      0.00000808
         1         1         1         1         3         3     -0.00004866
         1         1         1         1         3         4      0.00000000
         1         1         1         1         3         5     -0.00000000
         1         1         1         1         3         6      0.00000230
         1         1         1         1         4         1      0.00000000
         1         1         1         1         4         2      0.00000000
         1         1         1         1         4         3      0.00000000
         1         1         1         1         4         4     -0.00004334
         1         1         1         1         4         5     -0.00000000
         1         1         1         1         4         6      0.00000000
         1         1         1         1         5         1      0.00000000
         1         1         1         1         5         2     -0.00000000
         1         1         1         1         5         3     -0.00000000
         1         1         1         1         5         4     -0.00000000
         1         1         1         1         5         5     -0.00004334
         1         1         1         1         5         6     -0.00000000
         1         1         1         1         6         1     -0.00001918
         1         1         1         1         6         2      0.00002727
         1         1         1         1         6         3      0.00000230
         1         1         1         1         6         4      0.00000000
         1         1         1         1         6         5     -0.00000000
         1         1         1         1         6         6     -0.00004855
         2         1         1         1         1         1      0.00000239
         2         1         1         1         1         2     -0.00000121
         2         1         1         1         1         3      0.00001521
         2         1         1         1         1         4      0.00000000
         2         1         1         1         1         5      0.00000000
         2         1         1         1         1         6     -0.00000189
         2         1         1         1         2         1     -0.00000126
         2         1         1         1         2         2      0.00000339
         2         1         1         1         2         3     -0.00001986
         2         1         1         1         2         4      0.00000000
         2         1         1         1         2         5     -0.00000000
         2         1         1         1         2         6      0.00000366
         2         1         1         1         3         1      0.00001443
         2         1         1         1         3         2     -0.00001891
         2         1         1         1         3         3      0.00000478
         2         1         1         1         3         4      0.00000000
         2         1         1         1         3         5     -0.00000000
         2         1         1         1         3         6      0.00003300
         2         1         1         1         4         1      0.00000000
         2         1         1         1         4         2      0.00000000
         2         1         1         1         4         3      0.00000000
         2         1         1         1         4         4     -0.00003535
         2         1         1         1         4         5     -0.00000000
         2         1         1         1         4         6      0.00000000
         2         1         1         1         5         1      0.00000000
         2         1         1         1         5         2     -0.00000000
         2         1         1         1         5         3     -0.00000000
         2         1         1         1         5         4     -0.00000000
         2         1         1         1         5         5     -0.00003535
         2         1         1         1         5         6     -0.00000000
         2         1         1         1         6         1     -0.00000069
         2         1         1         1         6         2      0.00000224
         2         1         1         1         6         3      0.00003321
         2         1         1         1         6         4      0.00000000
         2         1         1         1         6         5     -0.00000000
         2         1         1         1         6         6     -0.00001473
         2         2         1         1         1         1     -0.00013030
         2         2         1         1         1         2      0.00019458
         2         2         1         1         1         3     -0.00018949
         2         2         1         1         1         4      0.00000000
         2         2         1         1         1         5      0.00000000
         2         2         1         1         1         6     -0.00025533
         2         2         1         1         2         1      0.00019458
         2         2         1         1         2         2     -0.00022115
         2         2         1         1         2         3      0.00023041
         2         2         1         1         2         4      0.00000000
         2         2         1         1         2         5     -0.00000000
         2         2         1         1         2         6      0.00033051
         2         2         1         1         3         1     -0.00018949
         2         2         1         1         3         2      0.00023041
         2         2         1         1         3         3     -0.00063354
         2         2         1         1         3         4      0.00000000
         2         2         1         1         3         5     -0.00000000
         2         2         1         1         3         6     -0.00018827
         2         2         1         1         4         1      0.00000000
         2         2         1         1         4         2      0.00000000
         2         2         1         1         4         3      0.00000000
         2         2         1         1         4         4     -0.00034027
         2         2         1         1         4         5     -0.00000000
         2         2         1         1         4         6      0.00000000
         2         2         1         1         5         1      0.00000000
         2         2         1         1         5         2     -0.00000000
         2         2         1         1         5         3     -0.00000000
         2         2         1         1         5         4     -0.00000000
         2         2         1         1         5         5     -0.00034027
         2         2         1         1         5         6     -0.00000000
         2         2         1         1         6         1     -0.00025533
         2         2         1         1         6         2      0.00033051
         2         2         1         1         6         3     -0.00018827
         2         2         1         1         6         4      0.00000000
         2         2         1         1         6         5     -0.00000000
         2         2         1         1         6         6     -0.00051443
         3         1         1         1         1         1      0.00000195
         3         1         1         1         1         2     -0.00000221
         3         1         1         1         1         3     -0.00001629
         3         1         1         1         1         4     -0.00000000
         3         1         1         1         1         5      0.00000000
         3         1         1         1         1         6      0.00001054
         3         1         1         1         2         1     -0.00000115
         3         1         1         1         2         2      0.00000147
         3         1         1         1         2         3      0.00001792
         3         1         1         1         2         4      0.00000000
         3         1         1         1         2         5     -0.00000000
         3         1         1         1         2         6     -0.00000973
         3         1         1         1         3         1      0.00001554
         3         1         1         1         3         2     -0.00001989
         3         1         1         1         3         3     -0.00000669
         3         1         1         1         3         4     -0.00000000
         3         1         1         1         3         5      0.00000000
         3         1         1         1         3         6      0.00003902
         3         1         1         1         4         1      0.00000000
         3         1         1         1         4         2     -0.00000000
         3         1         1         1         4         3      0.00000000
         3         1         1         1         4         4     -0.00000083
         3         1         1         1         4         5     -0.00000000
         3         1         1         1         4         6      0.00000000
         3         1         1         1         5         1     -0.00000000
         3         1         1         1         5         2      0.00000000
         3         1         1         1         5         3     -0.00000000
         3         1         1         1         5         4     -0.00000000
         3         1         1         1         5         5     -0.00000083
         3         1         1         1         5         6     -0.00000000
         3         1         1         1         6         1     -0.00000146
         3         1         1         1         6         2      0.00000190
         3         1         1         1         6         3     -0.00003671
         3         1         1         1         6         4     -0.00000000
         3         1         1         1         6         5      0.00000000
         3         1         1         1         6         6      0.00001047
         3         2         1         1         1         1      0.00017399
         3         2         1         1         1         2     -0.00020571
         3         2         1         1         1         3      0.00017921
         3         2         1         1         1         4     -0.00000000
         3         2         1         1         1         5      0.00000000
         3         2         1         1         1         6      0.00028628
         3         2         1         1         2         1     -0.00020771
         3         2         1         1         2         2      0.00026862
         3         2         1         1         2         3     -0.00019693
         3         2         1         1         2         4     -0.00000000
         3         2         1         1         2         5      0.00000000
         3         2         1         1         2         6     -0.00039633
         3         2         1         1         3         1     -0.00021466
         3         2         1         1         3         2      0.00028195
         3         2         1         1         3         3     -0.00083230
         3         2         1         1         3         4     -0.00000000
         3         2         1         1         3         5      0.00000000
         3         2         1         1         3         6     -0.00018270
         3         2         1         1         4         1     -0.00000000
         3         2         1         1         4         2      0.00000000
         3         2         1         1         4         3     -0.00000000
         3         2         1         1         4         4      0.00000212
         3         2         1         1         4         5     -0.00000000
         3         2         1         1         4         6     -0.00000000
         3         2         1         1         5         1      0.00000000
         3         2         1         1         5         2     -0.00000000
         3         2         1         1         5         3      0.00000000
         3         2         1         1         5         4     -0.00000000
         3         2         1         1         5         5      0.00000212
         3         2         1         1         5         6      0.00000000
         3         2         1         1         6         1      0.00042147
         3         2         1         1         6         2     -0.00054735
         3         2         1         1         6         3      0.00066056
         3         2         1         1         6         4      0.00000000
         3         2         1         1         6         5     -0.00000000
         3         2         1         1         6         6      0.00066234
         3         3         1         1         1         1     -0.00015608
         3         3         1         1         1         2      0.00028691
         3         3         1         1         1         3      0.00027672
         3         3         1         1         1         4      0.00000000
         3         3         1         1         1         5     -0.00000000
         3         3         1         1         1         6     -0.00052502
         3         3         1         1         2         1      0.00028691
         3         3         1         1         2         2     -0.00033304
         3         3         1         1         2         3     -0.00032194
         3         3         1         1         2         4     -0.00000000
         3         3         1         1         2         5      0.00000000
         3         3         1         1         2         6      0.00070057
         3         3         1         1         3         1      0.00027672
         3         3         1         1         3         2     -0.00032194
         3         3         1         1         3         3     -0.00123633
         3         3         1         1         3         4     -0.00000000
         3         3         1         1         3         5      0.00000000
         3         3         1         1         3         6      0.00100443
         3         3         1         1         4         1      0.00000000
         3         3         1         1         4         2     -0.00000000
         3         3         1         1         4         3     -0.00000000
         3         3         1         1         4         4     -0.00020229
         3         3         1         1         4         5     -0.00000000
         3         3         1         1         4         6      0.00000000
         3         3         1         1         5         1     -0.00000000
         3         3         1         1         5         2      0.00000000
         3         3         1         1         5         3      0.00000000
         3         3         1         1         5         4     -0.00000000
         3         3         1         1         5         5     -0.00020229
         3         3         1         1         5         6     -0.00000000
         3         3         1         1         6         1     -0.00052502
         3         3         1         1         6         2      0.00070057
         3         3         1         1         6         3      0.00100443
         3         3         1         1         6         4      0.00000000
         3         3         1         1         6         5     -0.00000000
         3         3         1         1         6         6     -0.00150566
         4         1         1         1         1         1     -0.00000000
         4         1         1         1         1         2     -0.00000000
         4         1         1         1         1         3      0.00000000
         4         1         1         1         1         4      0.00001427
         4         1         1         1         1         5      0.00000108
         4         1         1         1         1         6      0.00000000
         4         1         1         1         2         1      0.00000000
         4         1         1         1         2         2      0.00000000
         4         1         1         1         2         3      0.00000000
         4         1         1         1         2         4     -0.00001993
         4         1         1         1         2         5     -0.00000151
         4         1         1         1         2         6      0.00000000
         4         1         1         1         3         1     -0.00000000
         4         1         1         1         3         2     -0.00000000
         4         1         1         1         3         3     -0.00000000
         4         1         1         1         3         4      0.00003275
         4         1         1         1         3         5      0.00000249
         4         1         1         1         3         6      0.00000000
         4         1         1         1         4         1     -0.00001037
         4         1         1         1         4         2      0.00001272
         4         1         1         1         4         3     -0.00002208
         4         1         1         1         4         4      0.00000000
         4         1         1         1         4         5      0.00000000
         4         1         1         1         4         6     -0.00001573
         4         1         1         1         5         1     -0.00000079
         4         1         1         1         5         2      0.00000097
         4         1         1         1         5         3     -0.00000168
         4         1         1         1         5         4     -0.00000000
         4         1         1         1         5         5     -0.00000000
         4         1         1         1         5         6     -0.00000119
         4         1         1         1         6         1     -0.00000000
         4         1         1         1         6         2     -0.00000000
         4         1         1         1         6         3     -0.00000000
         4         1         1         1         6         4      0.00002029
         4         1         1         1         6         5      0.00000154
         4         1         1         1         6         6      0.00000000
         4         2         1         1         1         1     -0.00000000
         4         2         1         1         1         2      0.00000000
         4         2         1         1         1         3     -0.00000000
         4         2         1         1         1         4      0.00015216
         4         2         1         1         1         5      0.00001155
         4         2         1         1         1         6     -0.00000000
         4         2         1         1         2         1     -0.00000000
         4         2         1         1         2         2      0.00000000
         4         2         1         1         2         3     -0.00000000
         4         2         1         1         2         4     -0.00017451
         4         2         1         1         2         5     -0.00001324
         4         2         1         1         2         6     -0.00000000
         4         2         1         1         3         1     -0.00000000
         4         2         1         1         3         2      0.00000000
         4         2         1         1         3         3     -0.00000000
         4         2         1         1         3         4      0.00030530
         4         2         1         1         3         5      0.00002317
         4         2         1         1         3         6     -0.00000000
         4         2         1         1         4         1      0.00047325
         4         2         1         1         4         2     -0.00057881
         4         2         1         1         4         3      0.00095389
         4         2         1         1         4         4      0.00000000
         4         2         1         1         4         5     -0.00000000
         4         2         1         1         4         6      0.00070738
         4         2         1         1         5         1      0.00003591
         4         2         1         1         5         2     -0.00004393
         4         2         1         1         5         3      0.00007239
         4         2         1         1         5         4     -0.00000000
         4         2         1         1         5         5      0.00000000
         4         2         1         1         5         6      0.00005368
         4         2         1         1         6         1     -0.00000000
         4         2         1         1         6         2     -0.00000000
         4         2         1         1         6         3     -0.00000000
         4         2         1         1         6         4      0.00024340
         4         2         1         1         6         5      0.00001847
         4         2         1         1         6         6      0.00000000
         4         3         1         1         1         1      0.00000000
         4         3         1         1         1         2     -0.00000000
         4         3         1         1         1         3     -0.00000000
         4         3         1         1         1         4     -0.00006385
         4         3         1         1         1         5     -0.00000485
         4         3         1         1         1         6      0.00000000
         4         3         1         1         2         1      0.00000000
         4         3         1         1         2         2     -0.00000000
         4         3         1         1         2         3     -0.00000000
         4         3         1         1         2         4      0.00007447
         4         3         1         1         2         5      0.00000565
         4         3         1         1         2         6      0.00000000
         4         3         1         1         3         1      0.00000000
         4         3         1         1         3         2     -0.00000000
         4         3         1         1         3         3     -0.00000000
         4         3         1         1         3         4      0.00015138
         4         3         1         1         3         5      0.00001149
         4         3         1         1         3         6      0.00000000
         4         3         1         1         4         1     -0.00048304
         4         3         1         1         4         2      0.00058492
         4         3         1         1         4         3      0.00116098
         4         3         1         1         4         4      0.00000000
         4         3         1         1         4         5     -0.00000000
         4         3         1         1         4         6     -0.00142481
         4         3         1         1         5         1     -0.00003666
         4         3         1         1         5         2      0.00004439
         4         3         1         1         5         3      0.00008811
         4         3         1         1         5         4      0.00000000
         4         3         1         1         5         5     -0.00000000
         4         3         1         1         5         6     -0.00010813
         4         3         1         1         6         1     -0.00000000
         4         3         1         1         6         2      0.00000000
         4         3         1         1         6         3     -0.00000000
         4         3         1         1         6         4     -0.00020050
         4         3         1         1         6         5     -0.00001522
         4         3         1         1         6         6     -0.00000000
         4         4         1         1         1         1     -0.00005359
         4         4         1         1         1         2      0.00010887
         4         4         1         1         1         3     -0.00009759
         4         4         1         1         1         4      0.00000000
         4         4         1         1         1         5      0.00000000
         4         4         1         1         1         6     -0.00013752
         4         4         1         1         2         1      0.00010887
         4         4         1         1         2         2     -0.00007672
         4         4         1         1         2         3      0.00009423
         4         4         1         1         2         4      0.00000000
         4         4         1         1         2         5     -0.00000000
         4         4         1         1         2         6      0.00017481
         4         4         1         1         3         1     -0.00009759
         4         4         1         1         3         2      0.00009423
         4         4         1         1         3         3     -0.00033743
         4         4         1         1         3         4      0.00000000
         4         4         1         1         3         5      0.00000000
         4         4         1         1         3         6     -0.00007948
         4         4         1         1         4         1      0.00000000
         4         4         1         1         4         2      0.00000000
         4         4         1         1         4         3      0.00000000
         4         4         1         1         4         4     -0.00217410
         4         4         1         1         4         5     -0.00014989
         4         4         1         1         4         6     -0.00000000
         4         4         1         1         5         1      0.00000000
         4         4         1         1         5         2     -0.00000000
         4         4         1         1         5         3      0.00000000
         4         4         1         1         5         4     -0.00014989
         4         4         1         1         5         5     -0.00021042
         4         4         1         1         5         6      0.00000000
         4         4         1         1         6         1     -0.00013752
         4         4         1         1         6         2      0.00017481
         4         4         1         1         6         3     -0.00007948
         4         4         1         1         6         4     -0.00000000
         4         4         1         1         6         5      0.00000000
         4         4         1         1         6         6     -0.00030555
         5         1         1         1         1         1      0.00000000
         5         1         1         1         1         2     -0.00000000
         5         1         1         1         1         3     -0.00000000
         5         1         1         1         1         4      0.00000108
         5         1         1         1         1         5     -0.00001427
         5         1         1         1         1         6     -0.00000000
         5         1         1         1         2         1     -0.00000000
         5         1         1         1         2         2      0.00000000
         5         1         1         1         2         3      0.00000000
         5         1         1         1         2         4     -0.00000151
         5         1         1         1         2         5      0.00001993
         5         1         1         1         2         6      0.00000000
         5         1         1         1         3         1      0.00000000
         5         1         1         1         3         2     -0.00000000
         5         1         1         1         3         3     -0.00000000
         5         1         1         1         3         4      0.00000249
         5         1         1         1         3         5     -0.00003275
         5         1         1         1         3         6      0.00000000
         5         1         1         1         4         1     -0.00000079
         5         1         1         1         4         2      0.00000097
         5         1         1         1         4         3     -0.00000168
         5         1         1         1         4         4      0.00000000
         5         1         1         1         4         5     -0.00000000
         5         1         1         1         4         6     -0.00000119
         5         1         1         1         5         1      0.00001037
         5         1         1         1         5         2     -0.00001272
         5         1         1         1         5         3      0.00002208
         5         1         1         1         5         4      0.00000000
         5         1         1         1         5         5     -0.00000000
         5         1         1         1         5         6      0.00001573
         5         1         1         1         6         1      0.00000000
         5         1         1         1         6         2     -0.00000000
         5         1         1         1         6         3     -0.00000000
         5         1         1         1         6         4      0.00000154
         5         1         1         1         6         5     -0.00002029
         5         1         1         1         6         6      0.00000000
         5         2         1         1         1         1      0.00000000
         5         2         1         1         1         2     -0.00000000
         5         2         1         1         1         3      0.00000000
         5         2         1         1         1         4      0.00001155
         5         2         1         1         1         5     -0.00015216
         5         2         1         1         1         6      0.00000000
         5         2         1         1         2         1     -0.00000000
         5         2         1         1         2         2      0.00000000
         5         2         1         1         2         3     -0.00000000
         5         2         1         1         2         4     -0.00001324
         5         2         1         1         2         5      0.00017451
         5         2         1         1         2         6     -0.00000000
         5         2         1         1         3         1     -0.00000000
         5         2         1         1         3         2      0.00000000
         5         2         1         1         3         3     -0.00000000
         5         2         1         1         3         4      0.00002317
         5         2         1         1         3         5     -0.00030530
         5         2         1         1         3         6     -0.00000000
         5         2         1         1         4         1      0.00003591
         5         2         1         1         4         2     -0.00004393
         5         2         1         1         4         3      0.00007239
         5         2         1         1         4         4      0.00000000
         5         2         1         1         4         5     -0.00000000
         5         2         1         1         4         6      0.00005368
         5         2         1         1         5         1     -0.00047325
         5         2         1         1         5         2      0.00057881
         5         2         1         1         5         3     -0.00095389
         5         2         1         1         5         4     -0.00000000
         5         2         1         1         5         5      0.00000000
         5         2         1         1         5         6     -0.00070738
         5         2         1         1         6         1      0.00000000
         5         2         1         1         6         2     -0.00000000
         5         2         1         1         6         3     -0.00000000
         5         2         1         1         6         4      0.00001847
         5         2         1         1         6         5     -0.00024340
         5         2         1         1         6         6      0.00000000
         5         3         1         1         1         1     -0.00000000
         5         3         1         1         1         2      0.00000000
         5         3         1         1         1         3      0.00000000
         5         3         1         1         1         4     -0.00000485
         5         3         1         1         1         5      0.00006385
         5         3         1         1         1         6     -0.00000000
         5         3         1         1         2         1      0.00000000
         5         3         1         1         2         2     -0.00000000
         5         3         1         1         2         3     -0.00000000
         5         3         1         1         2         4      0.00000565
         5         3         1         1         2         5     -0.00007447
         5         3         1         1         2         6      0.00000000
         5         3         1         1         3         1      0.00000000
         5         3         1         1         3         2     -0.00000000
         5         3         1         1         3         3     -0.00000000
         5         3         1         1         3         4      0.00001149
         5         3         1         1         3         5     -0.00015138
         5         3         1         1         3         6      0.00000000
         5         3         1         1         4         1     -0.00003666
         5         3         1         1         4         2      0.00004439
         5         3         1         1         4         3      0.00008811
         5         3         1         1         4         4      0.00000000
         5         3         1         1         4         5     -0.00000000
         5         3         1         1         4         6     -0.00010813
         5         3         1         1         5         1      0.00048304
         5         3         1         1         5         2     -0.00058492
         5         3         1         1         5         3     -0.00116098
         5         3         1         1         5         4     -0.00000000
         5         3         1         1         5         5      0.00000000
         5         3         1         1         5         6      0.00142481
         5         3         1         1         6         1     -0.00000000
         5         3         1         1         6         2      0.00000000
         5         3         1         1         6         3      0.00000000
         5         3         1         1         6         4     -0.00001522
         5         3         1         1         6         5      0.00020050
         5         3         1         1         6         6     -0.00000000
         5         4         1         1         1         1      0.00000000
         5         4         1         1         1         2     -0.00000000
         5         4         1         1         1         3      0.00000000
         5         4         1         1         1         4     -0.00000000
         5         4         1         1         1         5     -0.00000000
         5         4         1         1         1         6      0.00000000
         5         4         1         1         2         1     -0.00000000
         5         4         1         1         2         2     -0.00000000
         5         4         1         1         2         3      0.00000000
         5         4         1         1         2         4      0.00000000
         5         4         1         1         2         5     -0.00000000
         5         4         1         1         2         6      0.00000000
         5         4         1         1         3         1      0.00000000
         5         4         1         1         3         2      0.00000000
         5         4         1         1         3         3      0.00000000
         5         4         1         1         3         4      0.00000000
         5         4         1         1         3         5      0.00000000
         5         4         1         1         3         6     -0.00000000
         5         4         1         1         4         1      0.00000000
         5         4         1         1         4         2      0.00000000
         5         4         1         1         4         3      0.00000000
         5         4         1         1         4         4     -0.00014989
         5         4         1         1         4         5      0.00021534
         5         4         1         1         4         6     -0.00000000
         5         4         1         1         5         1     -0.00000000
         5         4         1         1         5         2     -0.00000000
         5         4         1         1         5         3     -0.00000000
         5         4         1         1         5         4      0.00174834
         5         4         1         1         5         5      0.00014989
         5         4         1         1         5         6     -0.00000000
         5         4         1         1         6         1      0.00000000
         5         4         1         1         6         2     -0.00000000
         5         4         1         1         6         3      0.00000000
         5         4         1         1         6         4     -0.00000000
         5         4         1         1         6         5     -0.00000000
         5         4         1         1         6         6      0.00000000
         5         5         1         1         1         1     -0.00005359
         5         5         1         1         1         2      0.00010887
         5         5         1         1         1         3     -0.00009759
         5         5         1         1         1         4      0.00000000
         5         5         1         1         1         5      0.00000000
         5         5         1         1         1         6     -0.00013752
         5         5         1         1         2         1      0.00010887
         5         5         1         1         2         2     -0.00007672
         5         5         1         1         2         3      0.00009423
         5         5         1         1         2         4      0.00000000
         5         5         1         1         2         5     -0.00000000
         5         5         1         1         2         6      0.00017481
         5         5         1         1         3         1     -0.00009759
         5         5         1         1         3         2      0.00009423
         5         5         1         1         3         3     -0.00033743
         5         5         1         1         3         4      0.00000000
         5         5         1         1         3         5     -0.00000000
         5         5         1         1         3         6     -0.00007948
         5         5         1         1         4         1      0.00000000
         5         5         1         1         4         2      0.00000000
         5         5         1         1         4         3      0.00000000
         5         5         1         1         4         4     -0.00021042
         5         5         1         1         4         5      0.00014989
         5         5         1         1         4         6     -0.00000000
         5         5         1         1         5         1      0.00000000
         5         5         1         1         5         2     -0.00000000
         5         5         1         1         5         3     -0.00000000
         5         5         1         1         5         4      0.00014989
         5         5         1         1         5         5     -0.00217410
         5         5         1         1         5         6      0.00000000
         5         5         1         1         6         1     -0.00013752
         5         5         1         1         6         2      0.00017481
         5         5         1         1         6         3     -0.00007948
         5         5         1         1         6         4     -0.00000000
         5         5         1         1         6         5      0.00000000
         5         5         1         1         6         6     -0.00030555
         6         1         1         1         1         1      0.00000009
         6         1         1         1         1         2     -0.00000171
         6         1         1         1         1         3     -0.00000741
         6         1         1         1         1         4     -0.00000000
         6         1         1         1         1         5     -0.00000000
         6         1         1         1         1         6      0.00000462
         6         1         1         1         2         1     -0.00000277
         6         1         1         1         2         2      0.00000151
         6         1         1         1         2         3      0.00001254
         6         1         1         1         2         4     -0.00000000
         6         1         1         1         2         5     -0.00000000
         6         1         1         1         2         6     -0.00000989
         6         1         1         1         3         1     -0.00000376
         6         1         1         1         3         2      0.00000558
         6         1         1         1         3         3      0.00000257
         6         1         1         1         3         4     -0.00000000
         6         1         1         1         3         5      0.00000000
         6         1         1         1         3         6     -0.00001051
         6         1         1         1         4         1     -0.00000000
         6         1         1         1         4         2     -0.00000000
         6         1         1         1         4         3     -0.00000000
         6         1         1         1         4         4      0.00002355
         6         1         1         1         4         5      0.00000000
         6         1         1         1         4         6     -0.00000000
         6         1         1         1         5         1     -0.00000000
         6         1         1         1         5         2      0.00000000
         6         1         1         1         5         3      0.00000000
         6         1         1         1         5         4      0.00000000
         6         1         1         1         5         5      0.00002355
         6         1         1         1         5         6      0.00000000
         6         1         1         1         6         1      0.00000160
         6         1         1         1         6         2     -0.00000300
         6         1         1         1         6         3     -0.00001627
         6         1         1         1         6         4     -0.00000000
         6         1         1         1         6         5      0.00000000
         6         1         1         1         6         6      0.00001036
         6         2         1         1         1         1      0.00007050
         6         2         1         1         1         2     -0.00009864
         6         2         1         1         1         3      0.00019530
         6         2         1         1         1         4      0.00000000
         6         2         1         1         1         5      0.00000000
         6         2         1         1         1         6     -0.00001582
         6         2         1         1         2         1     -0.00007168
         6         2         1         1         2         2      0.00000069
         6         2         1         1         2         3     -0.00037661
         6         2         1         1         2         4      0.00000000
         6         2         1         1         2         5     -0.00000000
         6         2         1         1         2         6     -0.00007659
         6         2         1         1         3         1      0.00010854
         6         2         1         1         3         2     -0.00018230
         6         2         1         1         3         3      0.00005105
         6         2         1         1         3         4      0.00000000
         6         2         1         1         3         5     -0.00000000
         6         2         1         1         3         6      0.00020634
         6         2         1         1         4         1      0.00000000
         6         2         1         1         4         2      0.00000000
         6         2         1         1         4         3     -0.00000000
         6         2         1         1         4         4     -0.00034342
         6         2         1         1         4         5      0.00000000
         6         2         1         1         4         6      0.00000000
         6         2         1         1         5         1      0.00000000
         6         2         1         1         5         2     -0.00000000
         6         2         1         1         5         3      0.00000000
         6         2         1         1         5         4      0.00000000
         6         2         1         1         5         5     -0.00034342
         6         2         1         1         5         6      0.00000000
         6         2         1         1         6         1      0.00011776
         6         2         1         1         6         2     -0.00031258
         6         2         1         1         6         3      0.00029047
         6         2         1         1         6         4      0.00000000
         6         2         1         1         6         5     -0.00000000
         6         2         1         1         6         6     -0.00004320
         6         3         1         1         1         1     -0.00015345
         6         3         1         1         1         2      0.00014677
         6         3         1         1         1         3      0.00035617
         6         3         1         1         1         4      0.00000000
         6         3         1         1         1         5     -0.00000000
         6         3         1         1         1         6     -0.00032216
         6         3         1         1         2         1      0.00014079
         6         3         1         1         2         2      0.00018626
         6         3         1         1         2         3     -0.00033633
         6         3         1         1         2         4     -0.00000000
         6         3         1         1         2         5      0.00000000
         6         3         1         1         2         6      0.00053866
         6         3         1         1         3         1     -0.00007562
         6         3         1         1         3         2      0.00028218
         6         3         1         1         3         3      0.00010912
         6         3         1         1         3         4      0.00000000
         6         3         1         1         3         5     -0.00000000
         6         3         1         1         3         6     -0.00008188
         6         3         1         1         4         1     -0.00000000
         6         3         1         1         4         2      0.00000000
         6         3         1         1         4         3     -0.00000000
         6         3         1         1         4         4      0.00004277
         6         3         1         1         4         5     -0.00000000
         6         3         1         1         4         6     -0.00000000
         6         3         1         1         5         1      0.00000000
         6         3         1         1         5         2     -0.00000000
         6         3         1         1         5         3      0.00000000
         6         3         1         1         5         4     -0.00000000
         6         3         1         1         5         5      0.00004277
         6         3         1         1         5         6      0.00000000
         6         3         1         1         6         1     -0.00028521
         6         3         1         1         6         2      0.00051591
         6         3         1         1         6         3      0.00063118
         6         3         1         1         6         4      0.00000000
         6         3         1         1         6         5     -0.00000000
         6         3         1         1         6         6     -0.00047595
         6         4         1         1         1         1     -0.00000000
         6         4         1         1         1         2      0.00000000
         6         4         1         1         1         3      0.00000000
         6         4         1         1         1         4     -0.00029870
         6         4         1         1         1         5     -0.00002267
         6         4         1         1         1         6     -0.00000000
         6         4         1         1         2         1     -0.00000000
         6         4         1         1         2         2     -0.00000000
         6         4         1         1         2         3     -0.00000000
         6         4         1         1         2         4      0.00056746
         6         4         1         1         2         5      0.00004306
         6         4         1         1         2         6      0.00000000
         6         4         1         1         3         1      0.00000000
         6         4         1         1         3         2      0.00000000
         6         4         1         1         3         3      0.00000000
         6         4         1         1         3         4     -0.00032048
         6         4         1         1         3         5     -0.00002432
         6         4         1         1         3         6     -0.00000000
         6         4         1         1         4         1      0.00018697
         6         4         1         1         4         2     -0.00004554
         6         4         1         1         4         3      0.00017003
         6         4         1         1         4         4     -0.00000000
         6         4         1         1         4         5      0.00000000
         6         4         1         1         4         6      0.00038356
         6         4         1         1         5         1      0.00001419
         6         4         1         1         5         2     -0.00000346
         6         4         1         1         5         3      0.00001290
         6         4         1         1         5         4     -0.00000000
         6         4         1         1         5         5     -0.00000000
         6         4         1         1         5         6      0.00002911
         6         4         1         1         6         1     -0.00000000
         6         4         1         1         6         2      0.00000000
         6         4         1         1         6         3      0.00000000
         6         4         1         1         6         4     -0.00051371
         6         4         1         1         6         5     -0.00003898
         6         4         1         1         6         6     -0.00000000
         6         5         1         1         1         1     -0.00000000
         6         5         1         1         1         2      0.00000000
         6         5         1         1         1         3      0.00000000
         6         5         1         1         1         4     -0.00002267
         6         5         1         1         1         5      0.00029870
         6         5         1         1         1         6     -0.00000000
         6         5         1         1         2         1      0.00000000
         6         5         1         1         2         2      0.00000000
         6         5         1         1         2         3     -0.00000000
         6         5         1         1         2         4      0.00004306
         6         5         1         1         2         5     -0.00056746
         6         5         1         1         2         6      0.00000000
         6         5         1         1         3         1     -0.00000000
         6         5         1         1         3         2      0.00000000
         6         5         1         1         3         3      0.00000000
         6         5         1         1         3         4     -0.00002432
         6         5         1         1         3         5      0.00032048
         6         5         1         1         3         6     -0.00000000
         6         5         1         1         4         1      0.00001419
         6         5         1         1         4         2     -0.00000346
         6         5         1         1         4         3      0.00001290
         6         5         1         1         4         4     -0.00000000
         6         5         1         1         4         5     -0.00000000
         6         5         1         1         4         6      0.00002911
         6         5         1         1         5         1     -0.00018697
         6         5         1         1         5         2      0.00004554
         6         5         1         1         5         3     -0.00017003
         6         5         1         1         5         4      0.00000000
         6         5         1         1         5         5     -0.00000000
         6         5         1         1         5         6     -0.00038356
         6         5         1         1         6         1     -0.00000000
         6         5         1         1         6         2      0.00000000
         6         5         1         1         6         3      0.00000000
         6         5         1         1         6         4     -0.00003898
         6         5         1         1         6         5      0.00051371
         6         5         1         1         6         6     -0.00000000
         6         6         1         1         1         1     -0.00791273
         6         6         1         1         1         2      0.00307986
         6         6         1         1         1         3     -0.00186250
         6         6         1         1         1         4      0.00000000
         6         6         1         1         1         5      0.00000000
         6         6         1         1         1         6     -0.01069378
         6         6         1         1         2         1      0.00307986
         6         6         1         1         2         2     -0.01366740
         6         6         1         1         2         3      0.00047002
         6         6         1         1         2         4      0.00000000
         6         6         1         1         2         5     -0.00000000
         6         6         1         1         2         6     -0.00424591
         6         6         1         1         3         1     -0.00186250
         6         6         1         1         3         2      0.00047002
         6         6         1         1         3         3     -0.00386624
         6         6         1         1         3         4      0.00000000
         6         6         1         1         3         5     -0.00000000
         6         6         1         1         3         6     -0.00276214
         6         6         1         1         4         1      0.00000000
         6         6         1         1         4         2      0.00000000
         6         6         1         1         4         3      0.00000000
         6         6         1         1         4         4     -0.00673244
         6         6         1         1         4         5     -0.00000000
         6         6         1         1         4         6      0.00000000
         6         6         1         1         5         1      0.00000000
         6         6         1         1         5         2     -0.00000000
         6         6         1         1         5         3     -0.00000000
         6         6         1         1         5         4     -0.00000000
         6         6         1         1         5         5     -0.00673244
         6         6         1         1         5         6     -0.00000000
         6         6         1         1         6         1     -0.01069378
         6         6         1         1         6         2     -0.00424591
         6         6         1         1         6         3     -0.00276214
         6         6         1         1         6         4      0.00000000
         6         6         1         1         6         5     -0.00000000
         6         6         1         1         6         6     -0.02222187
         7         1         1         1         1         1     -0.00000015
         7         1         1         1         1         2     -0.00000105
         7         1         1         1         1         3     -0.00000162
         7         1         1         1         1         4     -0.00000000
         7         1         1         1         1         5     -0.00000000
         7         1         1         1         1         6      0.00000120
         7         1         1         1         2         1      0.00000207
         7         1         1         1         2         2     -0.00000309
         7         1         1         1         2         3     -0.00000530
         7         1         1         1         2         4     -0.00000000
         7         1         1         1         2         5      0.00000000
         7         1         1         1         2         6      0.00000677
         7         1         1         1         3         1     -0.00000740
         7         1         1         1         3         2      0.00000965
         7         1         1         1         3         3      0.00000858
         7         1         1         1         3         4      0.00000000
         7         1         1         1         3         5      0.00000000
         7         1         1         1         3         6     -0.00002060
         7         1         1         1         4         1     -0.00000000
         7         1         1         1         4         2     -0.00000000
         7         1         1         1         4         3     -0.00000000
         7         1         1         1         4         4      0.00001203
         7         1         1         1         4         5      0.00000000
         7         1         1         1         4         6     -0.00000000
         7         1         1         1         5         1     -0.00000000
         7         1         1         1         5         2      0.00000000
         7         1         1         1         5         3     -0.00000000
         7         1         1         1         5         4      0.00000000
         7         1         1         1         5         5      0.00001203
         7         1         1         1         5         6      0.00000000
         7         1         1         1         6         1      0.00000309
         7         1         1         1         6         2     -0.00000534
         7         1         1         1         6         3     -0.00000459
         7         1         1         1         6         4     -0.00000000
         7         1         1         1         6         5     -0.00000000
         7         1         1         1         6         6      0.00000937
         7         2         1         1         1         1     -0.00009428
         7         2         1         1         1         2      0.00009560
         7         2         1         1         1         3      0.00013730
         7         2         1         1         1         4      0.00000000
         7         2         1         1         1         5      0.00000000
         7         2         1         1         1         6     -0.00022686
         7         2         1         1         2         1     -0.00002502
         7         2         1         1         2         2      0.00012289
         7         2         1         1         2         3      0.00021207
         7         2         1         1         2         4      0.00000000
         7         2         1         1         2         5     -0.00000000
         7         2         1         1         2         6     -0.00007750
         7         2         1         1         3         1      0.00026817
         7         2         1         1         3         2     -0.00026436
         7         2         1         1         3         3      0.00017901
[...]
         9         3         1         1         5         6     -0.00063615
         9         3         1         1         6         1      0.00000000
         9         3         1         1         6         2     -0.00000000
         9         3         1         1         6         3      0.00000000
         9         3         1         1         6         4      0.00003176
         9         3         1         1         6         5      0.00018070
         9         3         1         1         6         6      0.00000000
         9         4         1         1         1         1      0.00003393
         9         4         1         1         1         2     -0.00001176
         9         4         1         1         1         3      0.00002750
         9         4         1         1         1         4      0.00000000
         9         4         1         1         1         5     -0.00000000
         9         4         1         1         1         6      0.00006994
         9         4         1         1         2         1      0.00001363
         9         4         1         1         2         2     -0.00000803
         9         4         1         1         2         3      0.00001973
         9         4         1         1         2         4     -0.00000000
         9         4         1         1         2         5     -0.00000000
         9         4         1         1         2         6      0.00001281
         9         4         1         1         3         1      0.00000583
         9         4         1         1         3         2      0.00000702
         9         4         1         1         3         3      0.00002128
         9         4         1         1         3         4     -0.00000000
         9         4         1         1         3         5     -0.00000000
         9         4         1         1         3         6      0.00000795
         9         4         1         1         4         1     -0.00000000
         9         4         1         1         4         2      0.00000000
         9         4         1         1         4         3      0.00000000
         9         4         1         1         4         4     -0.00011694
         9         4         1         1         4         5      0.00014119
         9         4         1         1         4         6     -0.00000000
         9         4         1         1         5         1      0.00000000
         9         4         1         1         5         2      0.00000000
         9         4         1         1         5         3      0.00000000
         9         4         1         1         5         4     -0.00098700
         9         4         1         1         5         5     -0.00003358
         9         4         1         1         5         6     -0.00000000
         9         4         1         1         6         1      0.00004633
         9         4         1         1         6         2     -0.00002013
         9         4         1         1         6         3      0.00002250
         9         4         1         1         6         4     -0.00000000
         9         4         1         1         6         5      0.00000000
         9         4         1         1         6         6      0.00010516
         9         5         1         1         1         1     -0.00013304
         9         5         1         1         1         2      0.00004610
         9         5         1         1         1         3     -0.00010783
         9         5         1         1         1         4      0.00000000
         9         5         1         1         1         5     -0.00000000
         9         5         1         1         1         6     -0.00027421
         9         5         1         1         2         1     -0.00005344
         9         5         1         1         2         2      0.00003147
         9         5         1         1         2         3     -0.00007734
         9         5         1         1         2         4      0.00000000
         9         5         1         1         2         5     -0.00000000
         9         5         1         1         2         6     -0.00005024
         9         5         1         1         3         1     -0.00002286
         9         5         1         1         3         2     -0.00002752
         9         5         1         1         3         3     -0.00008345
         9         5         1         1         3         4      0.00000000
         9         5         1         1         3         5     -0.00000000
         9         5         1         1         3         6     -0.00003118
         9         5         1         1         4         1     -0.00000000
         9         5         1         1         4         2      0.00000000
         9         5         1         1         4         3      0.00000000
         9         5         1         1         4         4     -0.00012782
         9         5         1         1         4         5      0.00018555
         9         5         1         1         4         6     -0.00000000
         9         5         1         1         5         1     -0.00000000
         9         5         1         1         5         2      0.00000000
         9         5         1         1         5         3      0.00000000
         9         5         1         1         5         4     -0.00010219
         9         5         1         1         5         5      0.00071799
         9         5         1         1         5         6     -0.00000000
         9         5         1         1         6         1     -0.00018166
         9         5         1         1         6         2      0.00007892
         9         5         1         1         6         3     -0.00008822
         9         5         1         1         6         4      0.00000000
         9         5         1         1         6         5      0.00000000
         9         5         1         1         6         6     -0.00041231
         9         6         1         1         1         1      0.00000000
         9         6         1         1         1         2     -0.00000000
         9         6         1         1         1         3      0.00000000
         9         6         1         1         1         4     -0.00112697
         9         6         1         1         1         5     -0.00641199
         9         6         1         1         1         6      0.00000000
         9         6         1         1         2         1     -0.00000000
         9         6         1         1         2         2     -0.00000000
         9         6         1         1         2         3      0.00000000
         9         6         1         1         2         4      0.00035941
         9         6         1         1         2         5      0.00204488
         9         6         1         1         2         6     -0.00000000
         9         6         1         1         3         1     -0.00000000
         9         6         1         1         3         2      0.00000000
         9         6         1         1         3         3     -0.00000000
         9         6         1         1         3         4     -0.00085888
         9         6         1         1         3         5     -0.00488669
         9         6         1         1         3         6     -0.00000000
         9         6         1         1         4         1     -0.00170048
         9         6         1         1         4         2      0.00208840
         9         6         1         1         4         3     -0.00158368
         9         6         1         1         4         4      0.00000000
         9         6         1         1         4         5     -0.00000000
         9         6         1         1         4         6     -0.00140077
         9         6         1         1         5         1     -0.00967502
         9         6         1         1         5         2      0.01188211
         9         6         1         1         5         3     -0.00901050
         9         6         1         1         5         4     -0.00000000
         9         6         1         1         5         5      0.00000000
         9         6         1         1         5         6     -0.00796979
         9         6         1         1         6         1      0.00000000
         9         6         1         1         6         2     -0.00000000
         9         6         1         1         6         3     -0.00000000
         9         6         1         1         6         4     -0.00116458
         9         6         1         1         6         5     -0.00662597
         9         6         1         1         6         6     -0.00000000
         9         7         1         1         1         1      0.00000000
         9         7         1         1         1         2      0.00000000
         9         7         1         1         1         3      0.00000000
         9         7         1         1         1         4     -0.00036621
         9         7         1         1         1         5     -0.00208359
         9         7         1         1         1         6     -0.00000000
         9         7         1         1         2         1      0.00000000
         9         7         1         1         2         2     -0.00000000
         9         7         1         1         2         3      0.00000000
         9         7         1         1         2         4      0.00018021
         9         7         1         1         2         5      0.00102532
         9         7         1         1         2         6      0.00000000
         9         7         1         1         3         1      0.00000000
         9         7         1         1         3         2      0.00000000
         9         7         1         1         3         3     -0.00000000
         9         7         1         1         3         4     -0.00158589
         9         7         1         1         3         5     -0.00902306
         9         7         1         1         3         6     -0.00000000
         9         7         1         1         4         1      0.00006348
         9         7         1         1         4         2     -0.00059500
         9         7         1         1         4         3     -0.00419602
         9         7         1         1         4         4      0.00000000
         9         7         1         1         4         5     -0.00000000
         9         7         1         1         4         6      0.00046737
         9         7         1         1         5         1      0.00036117
         9         7         1         1         5         2     -0.00338529
         9         7         1         1         5         3     -0.02387361
         9         7         1         1         5         4     -0.00000000
         9         7         1         1         5         5      0.00000000
         9         7         1         1         5         6      0.00265915
         9         7         1         1         6         1     -0.00000000
         9         7         1         1         6         2      0.00000000
         9         7         1         1         6         3     -0.00000000
         9         7         1         1         6         4     -0.00008558
         9         7         1         1         6         5     -0.00048691
         9         7         1         1         6         6      0.00000000
         9         8         1         1         1         1      0.00000000
         9         8         1         1         1         2      0.00000000
         9         8         1         1         1         3     -0.00000000
         9         8         1         1         1         4      0.00000000
         9         8         1         1         1         5     -0.00000000
         9         8         1         1         1         6     -0.00000000
         9         8         1         1         2         1      0.00000000
         9         8         1         1         2         2      0.00000000
         9         8         1         1         2         3     -0.00000000
         9         8         1         1         2         4     -0.00000000
         9         8         1         1         2         5      0.00000000
         9         8         1         1         2         6      0.00000000
         9         8         1         1         3         1     -0.00000000
         9         8         1         1         3         2     -0.00000000
         9         8         1         1         3         3      0.00000000
         9         8         1         1         3         4     -0.00000000
         9         8         1         1         3         5     -0.00000000
         9         8         1         1         3         6     -0.00000000
         9         8         1         1         4         1      0.00000000
         9         8         1         1         4         2     -0.00000000
         9         8         1         1         4         3      0.00000000
         9         8         1         1         4         4     -0.00625934
         9         8         1         1         4         5     -0.00679805
         9         8         1         1         4         6      0.00000000
         9         8         1         1         5         1      0.00000000
         9         8         1         1         5         2      0.00000000
         9         8         1         1         5         3      0.00000000
         9         8         1         1         5         4     -0.02771488
         9         8         1         1         5         5      0.00625934
         9         8         1         1         5         6     -0.00000000
         9         8         1         1         6         1     -0.00000000
         9         8         1         1         6         2     -0.00000000
         9         8         1         1         6         3      0.00000000
         9         8         1         1         6         4     -0.00000000
         9         8         1         1         6         5     -0.00000000
         9         8         1         1         6         6     -0.00000000
         9         9         1         1         1         1     -0.00909886
         9         9         1         1         1         2     -0.00397398
         9         9         1         1         1         3     -0.00069034
         9         9         1         1         1         4     -0.00000000
         9         9         1         1         1         5      0.00000000
         9         9         1         1         1         6     -0.00608414
         9         9         1         1         2         1     -0.00397398
         9         9         1         1         2         2     -0.01256592
         9         9         1         1         2         3      0.00717539
         9         9         1         1         2         4      0.00000000
         9         9         1         1         2         5     -0.00000000
         9         9         1         1         2         6     -0.00087382
         9         9         1         1         3         1     -0.00069034
         9         9         1         1         3         2      0.00717539
         9         9         1         1         3         3     -0.01072881
         9         9         1         1         3         4      0.00000000
         9         9         1         1         3         5      0.00000000
         9         9         1         1         3         6     -0.00125351
         9         9         1         1         4         1     -0.00000000
         9         9         1         1         4         2      0.00000000
         9         9         1         1         4         3      0.00000000
         9         9         1         1         4         4     -0.00492599
         9         9         1         1         4         5     -0.00625934
         9         9         1         1         4         6      0.00000000
         9         9         1         1         5         1      0.00000000
         9         9         1         1         5         2     -0.00000000
         9         9         1         1         5         3      0.00000000
         9         9         1         1         5         4     -0.00625934
         9         9         1         1         5         5     -0.03943891
         9         9         1         1         5         6      0.00000000
         9         9         1         1         6         1     -0.00608414
         9         9         1         1         6         2     -0.00087382
         9         9         1         1         6         3     -0.00125351
         9         9         1         1         6         4      0.00000000
         9         9         1         1         6         5      0.00000000
         9         9         1         1         6         6     -0.00572826


 RESULTS
 =======

  Reference energy                   -459.608317213097

  Correlated core orbitals:             1.1       2.1       3.1       4.1       5.1
  Orbital energies:                  -104.8130  -10.5885   -8.0656   -8.0444   -8.0444

  CCSD core-core energy                -0.001552578155
  CCSD core-valence energy             -0.000726805514
  CCSD valence correlation energy      -0.044381440612

  CCSD singlet pair energy             -0.035730704606
  CCSD triplet pair energy             -0.010930119988
  CCSD correlation energy              -0.046660824282

 !CCSD total energy                  -459.654978037378

 Timing summary (sec):

 STEP                 CPU(USER)    SYS     CPU(TOT)    WALL
 Transformation          0.01      0.01      0.02      0.01
 CCSD iterations         0.14      0.02      0.16      0.17

 Program statistics:

 Available memory in ccsd:                39998876
 Min. memory needed in ccsd:                 14983
 Max. memory used in ccsd:                   14983
 Max. memory used in cckext:                 58529 (16 integral passes)



 **********************************************************************************************************************************
 DATASETS  * FILE   NREC   LENGTH (MB)   RECORD NAMES
              1      20       30.11       500      700      610      900      950      970     1000      129      960     1100   
                                          VAR     GEOM    BASINP   SYMINP    ZMAT    AOBASIS   BASIS     P2S    ABASIS      S 
                                         1400     1410     1200     1210     1080     1600     1650     1300     1700     1380   
                                           T        V       H0       H01     AOSYM     SMH    MOLCAS    ERIS     OPER     JKOP   

              3       5       14.77       500      610      700     1000     2100   
                                          VAR    BASINP    GEOM     BASIS     RHF  

 PROGRAMS   *        TOTAL      CCSD       INT   RESTART
 CPU TIMES  *         0.50      0.22      0.16      0.01
 REAL TIME  *         0.70 SEC
 DISK USED  *        49.44 MB
 **********************************************************************************************************************************
 Molecular orbitals read from record     2100.3  Type=RHF/CANONICAL (state 1.1)
 Occupation numbers read from record     2100.3  Type=RHF/RHF (state 1.1)
 Orbital energies read from record       2100.3  Type=RHF/CANONICAL (state 1.1)
 Redundancy group numbers read from rec  2100.3  Type=RHF/RHF (state 1.1)

 CCSD/6-31G energy=   -459.654978037378

            CCSD
   -459.65497804
 **********************************************************************************************************************************
 Molpro calculation terminated
