
 Primary working directories    : /scr/yuriaoto/job.023412/molpro.qDJ3us9ssF
 Secondary working directories  : /scr/yuriaoto/job.023412/molpro.qDJ3us9ssF
 Wavefunction directory         : /scr/yuriaoto/job.023412/
 Main file repository           : /scr/yuriaoto/job.023412/molpro.qDJ3us9ssF/

 id        : yuriaoto

 Nodes             nprocs
 t-rex.ufabc.int.br    1

 Using customized tuning parameters: mindgm=8; mindgv=16; mindgc=1; mindgr=1; noblas=0; minvec=7
 default implementation of scratch files=df  


 Variables initialized (933), CPU time= 0.01 sec
 ***,
 memory,40,m
 gprint,orbital,basis,civector
 gthresh,thrprint=0,printci=0.0
 file,3,wfu.dat,old
 
 {cisd,CC_NORM_MAX=10.0
 thresh,printci=0.0,ENERGY=1.0E-10,COEFF=1.0E-12
 print,ref=1
 core,0
 wf,18,1,0;
 }
 
 Commands  initialized (760), CPU time= 0.01 sec, 617 directives.
 Default parameters read. Elapsed time= 0.04 sec

 Checking input...
 Passed
1


                                         ***  PROGRAM SYSTEM MOLPRO  ***
                                       Copyright, TTI GmbH Stuttgart, 2015
                                    Version 2019.2 linked Abr  7 2019 15:10:35


 **********************************************************************************************************************************
 LABEL *                                                                                 
  64 bit serial version                                                                  DATE: 02-Jun-20          TIME: 00:23:06  
 **********************************************************************************************************************************

 SHA1:             3a8a58c585c929645742fb5a1b7541a4ad1da699
 **********************************************************************************************************************************


 THRESHOLDS:

 ZERO    =  1.00D-12  ONEINT  =  1.00D-12  TWOINT  =  1.00D-11  PREFAC  =  1.00D-14  XXXXXX  =  1.00D-09  EORDER  =  1.00D-04
 ENERGY  =  0.00D+00  ETEST   =  0.00D+00  EDENS   =  0.00D+00  THRDEDEF=  1.00D-06  GRADIENT=  1.00D-02  STEP    =  1.00D-03
 ORBITAL =  1.00D-05  CIVEC   =  1.00D-05  COEFF   =  1.00D-04  PRINTCI =  0.00D+00  PUNCHCI =  9.90D+01  OPTGRAD =  3.00D-04
 OPTENERG=  1.00D-06  OPTSTEP =  3.00D-04  THRGRAD =  1.00D-10  COMPRESS=  1.00D-11  VARMIN  =  1.00D-07  VARMAX  =  1.00D-03
 THRDOUB =  0.00D+00  THRDIV  =  1.00D-05  THRRED  =  1.00D-07  THRPSP  =  1.00D+00  THRDC   =  1.00D-10  THRCS   =  1.00D-10
 THRNRM  =  1.00D-08  THREQ   =  0.00D+00  THRDE   =  1.00D+00  THRREF  =  1.00D-05  SPARFAC =  1.00D+00  THRDLP  =  1.00D-07
 THRDIA  =  1.00D-10  THRDLS  =  1.00D-07  THRGPS  =  0.00D+00  THRKEX  =  0.00D+00  THRDIS  =  2.00D-01  THRVAR  =  1.00D-10
 THRLOC  =  1.00D-06  THRGAP  =  1.00D-06  THRLOCT = -1.00D+00  THRGAPT = -1.00D+00  THRORB  =  1.00D-06  THRMLTP =  0.00D+00
 THRCPQCI=  1.00D-10  KEXTA   =  0.00D+00  THRCOARS=  0.00D+00  SYMTOL  =  1.00D-06  GRADTOL =  1.00D-06  THROVL  =  1.00D-08
 THRORTH =  1.00D-08  GRID    =  1.00D-06  GRIDMAX =  1.00D-03  DTMAX   =  0.00D+00  THROCCDE=  1.00D-01  THROCCDE=  1.00D-01
 THRPRINT=  0.00D+00


 Variable memory set to   40000000 words,  buffer space 



 Permanent file  3  wfu.dat  assigned.  Implementation=df    Size= 14.09 MB


 PROGRAM * RESTART 


 Reading variables from file 3

 _FNUC           =      0.00000000
 _BASIS          =    6-31G
 _NELEC          =     18.00000000
 _PROGRAM        =    RHF-SCF
 _DMX            =     -0.00000000
 _DMY            =      0.00000000
 _DMZ            =     -0.64056631
 _DMX_SCF        =     -0.00000000
 _DMY_SCF        =      0.00000000
 _DMZ_SCF        =     -0.64056631
 _HOMO           =      9.10000000
 _EHOMO          =     -0.49295114
 _LUMO           =     10.10000000
 _ELUMO          =      0.32493986
 _ENERGY         =   -459.60831721
 _ENERGY_METHOD  =    RHF
 _ENERGY_BASIS   =    6-31G
 _ENUC           =     11.33333333
 _EPS1(1:15)     =   -104.81304708   -10.58851941    -8.06562950    -8.04437589    -8.04437589    -1.29348723
                       -0.68951886    -0.49295114    -0.49295114     0.32493986     0.41098157     0.59951917
                        0.61252576     0.61252576     1.47579847
 _IPROC_MPP      =      0.00000000
 _IPROC_MPPX     =      0.00000000
 _ORBITAL        =   2100.30000000
 _STATUS         =      1.00000000
 _DATE           =    31-May-20
 _LASTORB        =    RHF
 _OUTPUT         =    /scr/yuriaoto/job.023317/RHF.xml
 _PGROUP         =    C1  
 _TIME           =    01:23:49
 R               =      1.50000000

 Geometry written to block  1 of record 700


 **********************************************************************************************************************************
 DATASETS  * FILE   NREC   LENGTH (MB)   RECORD NAMES
              3       5       14.77       500      610      700     1000     2100   
                                          VAR    BASINP    GEOM     BASIS     RHF  

 PROGRAMS   *        TOTAL   RESTART
 CPU TIMES  *         0.11      0.01
 REAL TIME  *         0.14 SEC
 DISK USED  *        26.84 MB
 **********************************************************************************************************************************


 Recomputing integrals since basis changed


 Using spherical harmonics

 Library entry H      S 6-31G                selected for orbital group  1
 Library entry CL     S 6-31G                selected for orbital group  2
 Library entry CL     P 6-31G                selected for orbital group  2


 PROGRAM * SEWARD (Integral evaluation for generally contracted gaussian basis sets)     Author: Roland Lindh, 1990

 Geometry written to block  1 of record 700

 Orientation using atomic masses  
 Molecule type: Linear
 Rotational constants:     818.4131427    818.4131427      0.0000000 GHz  (calculated with average atomic masses)

 Point group  C1  



 ATOMIC COORDINATES

 NR  ATOM    CHARGE       X              Y              Z

   1  H       1.00    0.000000000    0.000000000   -1.458533433
   2  CL     17.00    0.000000000    0.000000000    0.041466567

 Bond lengths in Bohr (Angstrom)

 1-2  1.500000000
     ( 0.793765816)


 BASIS DATA

   Nr Sym  Nuc  Type         Exponents   Contraction coefficients

    1.1 A     1  1s          18.731137     0.033495
                              2.825394     0.234727
                              0.640122     0.813757
    2.1 A     1  1s           0.161278     1.000000
    3.1 A     2  1s       25180.100000     0.001833
                           3780.350000     0.014034
                            860.474000     0.069097
                            242.145000     0.237452
                             77.334900     0.483034
                             26.247000     0.339856
    4.1 A     2  1s         491.765000    -0.002297
                            116.984000    -0.030714
                             37.415300    -0.112528
                             13.783400     0.045016
                              5.452150     0.589353
                              2.225880     0.465206
    5.1 A     2  1s           3.186490    -0.251827
                              1.144270     0.061589
                              0.420377     1.060180
    6.1 A     2  1s           0.142657     1.000000
    7.1 A     2  2px        491.765000     0.003989
                            116.984000     0.030318
                             37.415300     0.129880
                             13.783400     0.327951
                              5.452150     0.453527
                              2.225880     0.252154
    8.1 A     2  2py        491.765000     0.003989
                            116.984000     0.030318
                             37.415300     0.129880
                             13.783400     0.327951
                              5.452150     0.453527
                              2.225880     0.252154
    9.1 A     2  2pz        491.765000     0.003989
                            116.984000     0.030318
                             37.415300     0.129880
                             13.783400     0.327951
                              5.452150     0.453527
                              2.225880     0.252154
   10.1 A     2  2px          3.186490    -0.014299
                              1.144270     0.323572
                              0.420377     0.743507
   11.1 A     2  2py          3.186490    -0.014299
                              1.144270     0.323572
                              0.420377     0.743507
   12.1 A     2  2pz          3.186490    -0.014299
                              1.144270     0.323572
                              0.420377     0.743507
   13.1 A     2  2px          0.142657     1.000000
   14.1 A     2  2py          0.142657     1.000000
   15.1 A     2  2pz          0.142657     1.000000

 NUCLEAR CHARGE:                   18
 NUMBER OF PRIMITIVE AOS:          50
 NUMBER OF SYMMETRY AOS:           50
 NUMBER OF CONTRACTIONS:           15   (   15A   )
 NUMBER OF CORE ORBITALS:           5   (    5A   )
 NUMBER OF VALENCE ORBITALS:        5   (    5A   )


 NUCLEAR REPULSION ENERGY   11.33333333

 EXTRA SYMMETRY OF AOS IN SYMMETRY 1:   1 1 1 1 1 1 2 3 1 2   3 1 2 3 1

 Eigenvalues of metric

         1 0.130E-01 0.193E+00 0.223E+00 0.323E+00 0.323E+00 0.485E+00 0.687E+00 0.942E+00


 Contracted 2-electron integrals neglected if value below      1.0D-11
 AO integral compression algorithm  1   Integral accuracy      1.0D-11

     0.262 MB (compressed) written to integral file ( 54.9%)


 NUMBER OF SORTED TWO-ELECTRON INTEGRALS:       7260.     BUFFER LENGTH:  32768
 NUMBER OF SEGMENTS:   1  SEGMENT LENGTH:       7260      RECORD LENGTH: 524288

 Memory used in sort:       0.56 MW

 SORT1 READ       16285. AND WROTE        1902. INTEGRALS IN      1 RECORDS. CPU TIME:     0.00 SEC, REAL TIME:     0.00 SEC
 SORT2 READ        1902. AND WROTE        7260. INTEGRALS IN      1 RECORDS. CPU TIME:     0.01 SEC, REAL TIME:     0.01 SEC

 FILE SIZES:   FILE 1:    30.2 MBYTE,  FILE 4:     4.2 MBYTE,   TOTAL:     34.4 MBYTE

 OPERATOR DM      FOR CENTER  0  COORDINATES:    0.000000    0.000000    0.000000


 **********************************************************************************************************************************
 DATASETS  * FILE   NREC   LENGTH (MB)   RECORD NAMES
              1      19       29.97       500      700      610      900      950      970     1000      129      960     1100   
                                          VAR     GEOM    BASINP   SYMINP    ZMAT    AOBASIS   BASIS     P2S    ABASIS      S 
                                         1400     1410     1200     1210     1080     1600     1650     1300     1700   
                                           T        V       H0       H01     AOSYM     SMH    MOLCAS    ERIS     OPER   

              3       5       14.77       500      610      700     1000     2100   
                                          VAR    BASINP    GEOM     BASIS     RHF  

 PROGRAMS   *        TOTAL       INT   RESTART
 CPU TIMES  *         0.27      0.14      0.01
 REAL TIME  *         0.43 SEC
 DISK USED  *        49.44 MB
 **********************************************************************************************************************************


 PROGRAM * CISD (Closed-shell CI(SD))     Authors: C. Hampel, H.-J. Werner, 1991, M. Deegan, P.J. Knowles, 1992


 Input parameters for THRESH:

 ENERGY   =    1.00D-10
 COEFF    =    1.00D-12
 PRINTCI  =    0.000000
 THRPRINT =    0.000000

 Convergence thresholds:  THRVAR = 1.00D-24  THRDEN = 1.00D-10

 Number of closed-shell orbitals:   9 (   9 )
 Number of external orbitals:       6 (   6 )

 Molecular orbitals read from record     2100.3  Type=RHF/CANONICAL (state 1.1)

 Number of N-1 electron functions:               9
 Number of N-2 electron functions:              45
 Number of singly external CSFs:                54
 Number of doubly external CSFs:              1485
 Total number of CSFs:                        1540

 Length of J-op  integral file:               0.00 MB
 Length of K-op  integral file:               0.05 MB

 Integral transformation finished. Total CPU:   0.00 sec, npass=  1  Memory used:   0.09 MW

 Reference energy:                   -459.60831721

 MP2 singlet pair energy:              -0.02869034
 MP2 triplet pair energy:              -0.01086841
 MP2 correlation energy:               -0.03955875
 MP2 total energy:                   -459.64787597

 SCS-MP2 correlation energy:           -0.04119098   (PS=  1.200000  PT=  0.333333)
 SCS-MP2 total energy:               -459.64950819

 ITER.      SQ.NORM     CORR.ENERGY   TOTAL ENERGY   ENERGY CHANGE        DEN1      VAR(S)    VAR(P)  DIIS     TIME  TIME/IT
   1      1.01752911    -0.04549950  -459.65381671    -0.00594075    -0.00449980  0.18D-03  0.29D-03  1  1     0.02     0.01
   2      1.01914032    -0.04583176  -459.65414897    -0.00033226    -0.00170047  0.10D-05  0.84D-05  2  2     0.02     0.01
   3      1.01937362    -0.04596109  -459.65427830    -0.00012933    -0.00019633  0.14D-06  0.58D-06  3  3     0.03     0.01
   4      1.01939885    -0.04596517  -459.65428238    -0.00000408    -0.00001062  0.25D-08  0.76D-08  4  4     0.04     0.01
   5      1.01939894    -0.04596555  -459.65428277    -0.00000038     0.00000047  0.22D-09  0.23D-09  5  5     0.04     0.01
   6      1.01939897    -0.04596556  -459.65428277    -0.00000000    -0.00000005  0.12D-10  0.76D-11  6  6     0.05     0.01
   7      1.01939896    -0.04596556  -459.65428277    -0.00000000    -0.00000000  0.31D-12  0.33D-12  6  1     0.06     0.01
   8      1.01939896    -0.04596556  -459.65428277    -0.00000000     0.00000000  0.74D-14  0.13D-13  6  2     0.06     0.01
   9      1.01939896    -0.04596556  -459.65428277    -0.00000000     0.00000000  0.31D-15  0.37D-15  6  3     0.07     0.01
  10      1.01939896    -0.04596556  -459.65428277     0.00000000    -0.00000000  0.16D-16  0.14D-16  6  4     0.07     0.01
  11      1.01939896    -0.04596556  -459.65428277     0.00000000    -0.00000000  0.87D-18  0.72D-18  6  5     0.08     0.01
  12      1.01939896    -0.04596556  -459.65428277     0.00000000    -0.00000000  0.25D-19  0.34D-19  6  6     0.08     0.01
  13      1.01939896    -0.04596556  -459.65428277     0.00000000    -0.00000000  0.43D-21  0.10D-20  6  1     0.09     0.01
  14      1.01939896    -0.04596556  -459.65428277     0.00000000    -0.00000000  0.96D-23  0.37D-22  6  2     0.09     0.01
  15      1.01939896    -0.04596556  -459.65428277     0.00000000    -0.00000000  0.38D-24  0.14D-23  6  3     0.10     0.01
  16      1.01939896    -0.04596556  -459.65428277     0.00000000    -0.00000000  0.30D-25  0.55D-25  6  4     0.10     0.01


 ! DIPOLE MOMENTS:                     -0.00000000     0.00000000    -0.63841733



 Norm of t1 vector:      0.01772572      S-energy:    -0.00001417      T1 diagnostic:  0.00295429

 Singles amplitudes (print threshold =  0.000E+00):

         I         SYM. A    A   T(IA)

         1         1         1      0.00000111
         1         1         2     -0.00000146
         1         1         3      0.00000333
         1         1         4     -0.00000000
         1         1         5     -0.00000000
         1         1         6      0.00000127
         2         1         1     -0.00011942
         2         1         2      0.00011333
         2         1         3     -0.00020973
         2         1         4     -0.00000000
         2         1         5      0.00000000
         2         1         6     -0.00013030
         3         1         1      0.00018942
         3         1         2     -0.00019326
         3         1         3     -0.00036834
         3         1         4     -0.00000000
         3         1         5      0.00000000
         3         1         6      0.00034283
         4         1         1      0.00000000
         4         1         2     -0.00000000
         4         1         3     -0.00000000
         4         1         4      0.00059397
         4         1         5      0.00004508
         4         1         6      0.00000000
         5         1         1      0.00000000
         5         1         2     -0.00000000
         5         1         3     -0.00000000
         5         1         4      0.00004508
         5         1         5     -0.00059397
         5         1         6      0.00000000
         6         1         1     -0.00008830
         6         1         2     -0.00311915
         6         1         3      0.00167315
         6         1         4      0.00000000
         6         1         5     -0.00000000
         6         1         6     -0.00063707
         7         1         1     -0.00089875
         7         1         2      0.00201274
         7         1         3      0.00592661
         7         1         4      0.00000000
         7         1         5     -0.00000000
         7         1         6     -0.00111833
         8         1         1     -0.00000000
         8         1         2     -0.00000000
         8         1         3     -0.00000000
         8         1         4      0.00702671
         8         1         5     -0.00123501
         8         1         6     -0.00000000
         9         1         1     -0.00000000
         9         1         2      0.00000000
         9         1         3      0.00000000
         9         1         4      0.00123501
         9         1         5      0.00702671
         9         1         6      0.00000000

 Doubles amplitudes (print threshold =  0.000E+00):

         I         J         SYM. A    SYM. B    A         B      T(IJ, AB)

         1         1         1         1         1         1     -0.00000753
         1         1         1         1         1         2      0.00001295
         1         1         1         1         1         3     -0.00000678
         1         1         1         1         1         4      0.00000000
         1         1         1         1         1         5      0.00000000
         1         1         1         1         1         6     -0.00001919
         1         1         1         1         2         1      0.00001295
         1         1         1         1         2         2     -0.00001386
         1         1         1         1         2         3      0.00000809
         1         1         1         1         2         4      0.00000000
         1         1         1         1         2         5     -0.00000000
         1         1         1         1         2         6      0.00002726
         1         1         1         1         3         1     -0.00000678
         1         1         1         1         3         2      0.00000809
         1         1         1         1         3         3     -0.00004865
         1         1         1         1         3         4      0.00000000
         1         1         1         1         3         5     -0.00000000
         1         1         1         1         3         6      0.00000229
         1         1         1         1         4         1      0.00000000
         1         1         1         1         4         2      0.00000000
         1         1         1         1         4         3      0.00000000
         1         1         1         1         4         4     -0.00004333
         1         1         1         1         4         5     -0.00000000
         1         1         1         1         4         6      0.00000000
         1         1         1         1         5         1      0.00000000
         1         1         1         1         5         2     -0.00000000
         1         1         1         1         5         3     -0.00000000
         1         1         1         1         5         4     -0.00000000
         1         1         1         1         5         5     -0.00004333
         1         1         1         1         5         6     -0.00000000
         1         1         1         1         6         1     -0.00001919
         1         1         1         1         6         2      0.00002726
         1         1         1         1         6         3      0.00000229
         1         1         1         1         6         4      0.00000000
         1         1         1         1         6         5     -0.00000000
         1         1         1         1         6         6     -0.00004856
         2         1         1         1         1         1      0.00000237
         2         1         1         1         1         2     -0.00000122
         2         1         1         1         1         3      0.00001521
         2         1         1         1         1         4      0.00000000
         2         1         1         1         1         5      0.00000000
         2         1         1         1         1         6     -0.00000189
         2         1         1         1         2         1     -0.00000127
         2         1         1         1         2         2      0.00000337
         2         1         1         1         2         3     -0.00001984
         2         1         1         1         2         4      0.00000000
         2         1         1         1         2         5     -0.00000000
         2         1         1         1         2         6      0.00000365
         2         1         1         1         3         1      0.00001443
         2         1         1         1         3         2     -0.00001889
         2         1         1         1         3         3      0.00000477
         2         1         1         1         3         4      0.00000000
         2         1         1         1         3         5     -0.00000000
         2         1         1         1         3         6      0.00003298
         2         1         1         1         4         1      0.00000000
         2         1         1         1         4         2      0.00000000
         2         1         1         1         4         3      0.00000000
         2         1         1         1         4         4     -0.00003532
         2         1         1         1         4         5     -0.00000000
         2         1         1         1         4         6      0.00000000
         2         1         1         1         5         1      0.00000000
         2         1         1         1         5         2     -0.00000000
         2         1         1         1         5         3     -0.00000000
         2         1         1         1         5         4     -0.00000000
         2         1         1         1         5         5     -0.00003532
         2         1         1         1         5         6     -0.00000000
         2         1         1         1         6         1     -0.00000070
         2         1         1         1         6         2      0.00000223
         2         1         1         1         6         3      0.00003320
         2         1         1         1         6         4      0.00000000
         2         1         1         1         6         5     -0.00000000
         2         1         1         1         6         6     -0.00001473
         2         2         1         1         1         1     -0.00013042
         2         2         1         1         1         2      0.00019437
         2         2         1         1         1         3     -0.00018939
         2         2         1         1         1         4      0.00000000
         2         2         1         1         1         5      0.00000000
         2         2         1         1         1         6     -0.00025524
         2         2         1         1         2         1      0.00019437
         2         2         1         1         2         2     -0.00022089
         2         2         1         1         2         3      0.00023018
         2         2         1         1         2         4      0.00000000
         2         2         1         1         2         5     -0.00000000
         2         2         1         1         2         6      0.00033016
         2         2         1         1         3         1     -0.00018939
         2         2         1         1         3         2      0.00023018
         2         2         1         1         3         3     -0.00063288
         2         2         1         1         3         4      0.00000000
         2         2         1         1         3         5     -0.00000000
         2         2         1         1         3         6     -0.00018813
         2         2         1         1         4         1      0.00000000
         2         2         1         1         4         2      0.00000000
         2         2         1         1         4         3      0.00000000
         2         2         1         1         4         4     -0.00033988
         2         2         1         1         4         5     -0.00000000
         2         2         1         1         4         6      0.00000000
         2         2         1         1         5         1      0.00000000
         2         2         1         1         5         2     -0.00000000
         2         2         1         1         5         3     -0.00000000
         2         2         1         1         5         4     -0.00000000
         2         2         1         1         5         5     -0.00033988
         2         2         1         1         5         6     -0.00000000
         2         2         1         1         6         1     -0.00025524
         2         2         1         1         6         2      0.00033016
         2         2         1         1         6         3     -0.00018813
         2         2         1         1         6         4      0.00000000
         2         2         1         1         6         5     -0.00000000
         2         2         1         1         6         6     -0.00051417
         3         1         1         1         1         1      0.00000195
         3         1         1         1         1         2     -0.00000220
         3         1         1         1         1         3     -0.00001628
         3         1         1         1         1         4     -0.00000000
         3         1         1         1         1         5      0.00000000
         3         1         1         1         1         6      0.00001054
         3         1         1         1         2         1     -0.00000115
         3         1         1         1         2         2      0.00000147
         3         1         1         1         2         3      0.00001791
         3         1         1         1         2         4      0.00000000
         3         1         1         1         2         5     -0.00000000
         3         1         1         1         2         6     -0.00000972
         3         1         1         1         3         1      0.00001553
         3         1         1         1         3         2     -0.00001987
         3         1         1         1         3         3     -0.00000668
         3         1         1         1         3         4     -0.00000000
         3         1         1         1         3         5     -0.00000000
         3         1         1         1         3         6      0.00003900
         3         1         1         1         4         1      0.00000000
         3         1         1         1         4         2     -0.00000000
         3         1         1         1         4         3     -0.00000000
         3         1         1         1         4         4     -0.00000083
         3         1         1         1         4         5     -0.00000000
         3         1         1         1         4         6      0.00000000
         3         1         1         1         5         1     -0.00000000
         3         1         1         1         5         2      0.00000000
         3         1         1         1         5         3     -0.00000000
         3         1         1         1         5         4     -0.00000000
         3         1         1         1         5         5     -0.00000083
         3         1         1         1         5         6     -0.00000000
         3         1         1         1         6         1     -0.00000146
         3         1         1         1         6         2      0.00000190
         3         1         1         1         6         3     -0.00003669
         3         1         1         1         6         4     -0.00000000
         3         1         1         1         6         5      0.00000000
         3         1         1         1         6         6      0.00001047
         3         2         1         1         1         1      0.00017378
         3         2         1         1         1         2     -0.00020554
         3         2         1         1         1         3      0.00017909
         3         2         1         1         1         4     -0.00000000
         3         2         1         1         1         5      0.00000000
         3         2         1         1         1         6      0.00028611
         3         2         1         1         2         1     -0.00020749
         3         2         1         1         2         2      0.00026795
         3         2         1         1         2         3     -0.00019646
         3         2         1         1         2         4     -0.00000000
         3         2         1         1         2         5      0.00000000
         3         2         1         1         2         6     -0.00039585
         3         2         1         1         3         1     -0.00021447
         3         2         1         1         3         2      0.00028159
         3         2         1         1         3         3     -0.00083126
         3         2         1         1         3         4     -0.00000000
         3         2         1         1         3         5      0.00000000
         3         2         1         1         3         6     -0.00018254
         3         2         1         1         4         1     -0.00000000
         3         2         1         1         4         2      0.00000000
         3         2         1         1         4         3     -0.00000000
         3         2         1         1         4         4      0.00000201
         3         2         1         1         4         5     -0.00000000
         3         2         1         1         4         6     -0.00000000
         3         2         1         1         5         1      0.00000000
         3         2         1         1         5         2     -0.00000000
         3         2         1         1         5         3      0.00000000
         3         2         1         1         5         4     -0.00000000
         3         2         1         1         5         5      0.00000201
         3         2         1         1         5         6      0.00000000
         3         2         1         1         6         1      0.00042121
         3         2         1         1         6         2     -0.00054673
         3         2         1         1         6         3      0.00065986
         3         2         1         1         6         4      0.00000000
         3         2         1         1         6         5     -0.00000000
         3         2         1         1         6         6      0.00066196
         3         3         1         1         1         1     -0.00015627
         3         3         1         1         1         2      0.00028647
         3         3         1         1         1         3      0.00027648
         3         3         1         1         1         4      0.00000000
         3         3         1         1         1         5     -0.00000000
         3         3         1         1         1         6     -0.00052477
         3         3         1         1         2         1      0.00028647
         3         3         1         1         2         2     -0.00033225
         3         3         1         1         2         3     -0.00032110
         3         3         1         1         2         4     -0.00000000
         3         3         1         1         2         5      0.00000000
         3         3         1         1         2         6      0.00069952
         3         3         1         1         3         1      0.00027648
         3         3         1         1         3         2     -0.00032110
         3         3         1         1         3         3     -0.00123451
         3         3         1         1         3         4     -0.00000000
         3         3         1         1         3         5      0.00000000
         3         3         1         1         3         6      0.00100323
         3         3         1         1         4         1      0.00000000
         3         3         1         1         4         2     -0.00000000
         3         3         1         1         4         3     -0.00000000
         3         3         1         1         4         4     -0.00020199
         3         3         1         1         4         5     -0.00000000
         3         3         1         1         4         6      0.00000000
         3         3         1         1         5         1     -0.00000000
         3         3         1         1         5         2      0.00000000
         3         3         1         1         5         3      0.00000000
         3         3         1         1         5         4     -0.00000000
         3         3         1         1         5         5     -0.00020199
         3         3         1         1         5         6     -0.00000000
         3         3         1         1         6         1     -0.00052477
         3         3         1         1         6         2      0.00069952
         3         3         1         1         6         3      0.00100323
         3         3         1         1         6         4      0.00000000
         3         3         1         1         6         5     -0.00000000
         3         3         1         1         6         6     -0.00150451
         4         1         1         1         1         1     -0.00000000
         4         1         1         1         1         2     -0.00000000
         4         1         1         1         1         3      0.00000000
         4         1         1         1         1         4      0.00001427
         4         1         1         1         1         5      0.00000108
         4         1         1         1         1         6      0.00000000
         4         1         1         1         2         1      0.00000000
         4         1         1         1         2         2      0.00000000
         4         1         1         1         2         3      0.00000000
         4         1         1         1         2         4     -0.00001991
         4         1         1         1         2         5     -0.00000151
         4         1         1         1         2         6      0.00000000
         4         1         1         1         3         1     -0.00000000
         4         1         1         1         3         2     -0.00000000
         4         1         1         1         3         3     -0.00000000
         4         1         1         1         3         4      0.00003272
         4         1         1         1         3         5      0.00000248
         4         1         1         1         3         6      0.00000000
         4         1         1         1         4         1     -0.00001037
         4         1         1         1         4         2      0.00001271
         4         1         1         1         4         3     -0.00002207
         4         1         1         1         4         4      0.00000000
         4         1         1         1         4         5      0.00000000
         4         1         1         1         4         6     -0.00001572
         4         1         1         1         5         1     -0.00000079
         4         1         1         1         5         2      0.00000096
         4         1         1         1         5         3     -0.00000167
         4         1         1         1         5         4     -0.00000000
         4         1         1         1         5         5     -0.00000000
         4         1         1         1         5         6     -0.00000119
         4         1         1         1         6         1     -0.00000000
         4         1         1         1         6         2     -0.00000000
         4         1         1         1         6         3     -0.00000000
         4         1         1         1         6         4      0.00002028
         4         1         1         1         6         5      0.00000154
         4         1         1         1         6         6      0.00000000
         4         2         1         1         1         1     -0.00000000
         4         2         1         1         1         2      0.00000000
         4         2         1         1         1         3     -0.00000000
         4         2         1         1         1         4      0.00015210
         4         2         1         1         1         5      0.00001154
         4         2         1         1         1         6     -0.00000000
         4         2         1         1         2         1     -0.00000000
         4         2         1         1         2         2      0.00000000
         4         2         1         1         2         3     -0.00000000
         4         2         1         1         2         4     -0.00017429
         4         2         1         1         2         5     -0.00001323
         4         2         1         1         2         6     -0.00000000
         4         2         1         1         3         1     -0.00000000
         4         2         1         1         3         2      0.00000000
         4         2         1         1         3         3     -0.00000000
         4         2         1         1         3         4      0.00030498
         4         2         1         1         3         5      0.00002314
         4         2         1         1         3         6     -0.00000000
         4         2         1         1         4         1      0.00047290
         4         2         1         1         4         2     -0.00057794
         4         2         1         1         4         3      0.00095262
         4         2         1         1         4         4      0.00000000
         4         2         1         1         4         5     -0.00000000
         4         2         1         1         4         6      0.00070665
         4         2         1         1         5         1      0.00003589
         4         2         1         1         5         2     -0.00004386
         4         2         1         1         5         3      0.00007229
         4         2         1         1         5         4     -0.00000000
         4         2         1         1         5         5      0.00000000
         4         2         1         1         5         6      0.00005363
         4         2         1         1         6         1     -0.00000000
         4         2         1         1         6         2     -0.00000000
         4         2         1         1         6         3     -0.00000000
         4         2         1         1         6         4      0.00024315
         4         2         1         1         6         5      0.00001845
         4         2         1         1         6         6      0.00000000
         4         3         1         1         1         1      0.00000000
         4         3         1         1         1         2     -0.00000000
         4         3         1         1         1         3     -0.00000000
         4         3         1         1         1         4     -0.00006378
         4         3         1         1         1         5     -0.00000484
         4         3         1         1         1         6      0.00000000
         4         3         1         1         2         1      0.00000000
         4         3         1         1         2         2     -0.00000000
         4         3         1         1         2         3     -0.00000000
         4         3         1         1         2         4      0.00007423
         4         3         1         1         2         5      0.00000563
         4         3         1         1         2         6      0.00000000
         4         3         1         1         3         1      0.00000000
         4         3         1         1         3         2     -0.00000000
         4         3         1         1         3         3     -0.00000000
         4         3         1         1         3         4      0.00015123
         4         3         1         1         3         5      0.00001148
         4         3         1         1         3         6      0.00000000
         4         3         1         1         4         1     -0.00048263
         4         3         1         1         4         2      0.00058356
         4         3         1         1         4         3      0.00115925
         4         3         1         1         4         4      0.00000000
         4         3         1         1         4         5     -0.00000000
         4         3         1         1         4         6     -0.00142311
         4         3         1         1         5         1     -0.00003663
         4         3         1         1         5         2      0.00004429
         4         3         1         1         5         3      0.00008797
         4         3         1         1         5         4      0.00000000
         4         3         1         1         5         5     -0.00000000
         4         3         1         1         5         6     -0.00010800
         4         3         1         1         6         1     -0.00000000
         4         3         1         1         6         2      0.00000000
         4         3         1         1         6         3     -0.00000000
         4         3         1         1         6         4     -0.00020025
         4         3         1         1         6         5     -0.00001520
         4         3         1         1         6         6     -0.00000000
         4         4         1         1         1         1     -0.00005387
         4         4         1         1         1         2      0.00010871
         4         4         1         1         1         3     -0.00009755
         4         4         1         1         1         4      0.00000000
         4         4         1         1         1         5      0.00000000
         4         4         1         1         1         6     -0.00013748
         4         4         1         1         2         1      0.00010871
         4         4         1         1         2         2     -0.00007693
         4         4         1         1         2         3      0.00009430
         4         4         1         1         2         4      0.00000000
         4         4         1         1         2         5     -0.00000000
         4         4         1         1         2         6      0.00017463
         4         4         1         1         3         1     -0.00009755
         4         4         1         1         3         2      0.00009430
         4         4         1         1         3         3     -0.00033724
         4         4         1         1         3         4      0.00000000
         4         4         1         1         3         5      0.00000000
         4         4         1         1         3         6     -0.00007944
         4         4         1         1         4         1      0.00000000
         4         4         1         1         4         2      0.00000000
         4         4         1         1         4         3      0.00000000
         4         4         1         1         4         4     -0.00217112
         4         4         1         1         4         5     -0.00014967
         4         4         1         1         4         6     -0.00000000
         4         4         1         1         5         1      0.00000000
         4         4         1         1         5         2     -0.00000000
         4         4         1         1         5         3      0.00000000
         4         4         1         1         5         4     -0.00014967
         4         4         1         1         5         5     -0.00021023
         4         4         1         1         5         6      0.00000000
         4         4         1         1         6         1     -0.00013748
         4         4         1         1         6         2      0.00017463
         4         4         1         1         6         3     -0.00007944
         4         4         1         1         6         4     -0.00000000
         4         4         1         1         6         5      0.00000000
         4         4         1         1         6         6     -0.00030529
         5         1         1         1         1         1      0.00000000
         5         1         1         1         1         2     -0.00000000
         5         1         1         1         1         3     -0.00000000
         5         1         1         1         1         4      0.00000108
         5         1         1         1         1         5     -0.00001427
         5         1         1         1         1         6     -0.00000000
         5         1         1         1         2         1     -0.00000000
         5         1         1         1         2         2      0.00000000
         5         1         1         1         2         3      0.00000000
         5         1         1         1         2         4     -0.00000151
         5         1         1         1         2         5      0.00001991
         5         1         1         1         2         6      0.00000000
         5         1         1         1         3         1      0.00000000
         5         1         1         1         3         2     -0.00000000
         5         1         1         1         3         3     -0.00000000
         5         1         1         1         3         4      0.00000248
         5         1         1         1         3         5     -0.00003272
         5         1         1         1         3         6      0.00000000
         5         1         1         1         4         1     -0.00000079
         5         1         1         1         4         2      0.00000096
         5         1         1         1         4         3     -0.00000167
         5         1         1         1         4         4      0.00000000
         5         1         1         1         4         5     -0.00000000
         5         1         1         1         4         6     -0.00000119
         5         1         1         1         5         1      0.00001037
         5         1         1         1         5         2     -0.00001271
         5         1         1         1         5         3      0.00002207
         5         1         1         1         5         4      0.00000000
         5         1         1         1         5         5     -0.00000000
         5         1         1         1         5         6      0.00001572
         5         1         1         1         6         1      0.00000000
         5         1         1         1         6         2     -0.00000000
         5         1         1         1         6         3     -0.00000000
         5         1         1         1         6         4      0.00000154
         5         1         1         1         6         5     -0.00002028
         5         1         1         1         6         6      0.00000000
         5         2         1         1         1         1      0.00000000
         5         2         1         1         1         2     -0.00000000
         5         2         1         1         1         3      0.00000000
         5         2         1         1         1         4      0.00001154
         5         2         1         1         1         5     -0.00015210
         5         2         1         1         1         6      0.00000000
         5         2         1         1         2         1     -0.00000000
         5         2         1         1         2         2      0.00000000
         5         2         1         1         2         3     -0.00000000
         5         2         1         1         2         4     -0.00001323
         5         2         1         1         2         5      0.00017429
         5         2         1         1         2         6     -0.00000000
         5         2         1         1         3         1     -0.00000000
         5         2         1         1         3         2      0.00000000
         5         2         1         1         3         3     -0.00000000
         5         2         1         1         3         4      0.00002314
         5         2         1         1         3         5     -0.00030498
         5         2         1         1         3         6     -0.00000000
         5         2         1         1         4         1      0.00003589
         5         2         1         1         4         2     -0.00004386
         5         2         1         1         4         3      0.00007229
         5         2         1         1         4         4      0.00000000
         5         2         1         1         4         5     -0.00000000
         5         2         1         1         4         6      0.00005363
         5         2         1         1         5         1     -0.00047290
         5         2         1         1         5         2      0.00057794
         5         2         1         1         5         3     -0.00095262
         5         2         1         1         5         4     -0.00000000
         5         2         1         1         5         5      0.00000000
         5         2         1         1         5         6     -0.00070665
         5         2         1         1         6         1      0.00000000
         5         2         1         1         6         2     -0.00000000
         5         2         1         1         6         3     -0.00000000
         5         2         1         1         6         4      0.00001845
         5         2         1         1         6         5     -0.00024315
         5         2         1         1         6         6      0.00000000
         5         3         1         1         1         1     -0.00000000
         5         3         1         1         1         2      0.00000000
         5         3         1         1         1         3      0.00000000
         5         3         1         1         1         4     -0.00000484
         5         3         1         1         1         5      0.00006378
         5         3         1         1         1         6     -0.00000000
         5         3         1         1         2         1      0.00000000
         5         3         1         1         2         2     -0.00000000
         5         3         1         1         2         3     -0.00000000
         5         3         1         1         2         4      0.00000563
         5         3         1         1         2         5     -0.00007423
         5         3         1         1         2         6      0.00000000
         5         3         1         1         3         1      0.00000000
         5         3         1         1         3         2     -0.00000000
         5         3         1         1         3         3     -0.00000000
         5         3         1         1         3         4      0.00001148
         5         3         1         1         3         5     -0.00015123
         5         3         1         1         3         6      0.00000000
         5         3         1         1         4         1     -0.00003663
         5         3         1         1         4         2      0.00004429
         5         3         1         1         4         3      0.00008797
         5         3         1         1         4         4      0.00000000
         5         3         1         1         4         5     -0.00000000
         5         3         1         1         4         6     -0.00010800
         5         3         1         1         5         1      0.00048263
         5         3         1         1         5         2     -0.00058356
         5         3         1         1         5         3     -0.00115925
         5         3         1         1         5         4     -0.00000000
         5         3         1         1         5         5      0.00000000
         5         3         1         1         5         6      0.00142311
         5         3         1         1         6         1     -0.00000000
         5         3         1         1         6         2      0.00000000
         5         3         1         1         6         3      0.00000000
         5         3         1         1         6         4     -0.00001520
         5         3         1         1         6         5      0.00020025
         5         3         1         1         6         6     -0.00000000
         5         4         1         1         1         1      0.00000000
         5         4         1         1         1         2      0.00000000
         5         4         1         1         1         3     -0.00000000
         5         4         1         1         1         4     -0.00000000
         5         4         1         1         1         5     -0.00000000
         5         4         1         1         1         6     -0.00000000
         5         4         1         1         2         1      0.00000000
         5         4         1         1         2         2      0.00000000
         5         4         1         1         2         3     -0.00000000
         5         4         1         1         2         4      0.00000000
         5         4         1         1         2         5     -0.00000000
         5         4         1         1         2         6     -0.00000000
         5         4         1         1         3         1     -0.00000000
         5         4         1         1         3         2     -0.00000000
         5         4         1         1         3         3      0.00000000
         5         4         1         1         3         4      0.00000000
         5         4         1         1         3         5      0.00000000
         5         4         1         1         3         6      0.00000000
         5         4         1         1         4         1      0.00000000
         5         4         1         1         4         2      0.00000000
         5         4         1         1         4         3      0.00000000
         5         4         1         1         4         4     -0.00014967
         5         4         1         1         4         5      0.00021517
         5         4         1         1         4         6     -0.00000000
         5         4         1         1         5         1     -0.00000000
         5         4         1         1         5         2     -0.00000000
         5         4         1         1         5         3     -0.00000000
         5         4         1         1         5         4      0.00174572
         5         4         1         1         5         5      0.00014967
         5         4         1         1         5         6      0.00000000
         5         4         1         1         6         1     -0.00000000
         5         4         1         1         6         2     -0.00000000
         5         4         1         1         6         3      0.00000000
         5         4         1         1         6         4     -0.00000000
         5         4         1         1         6         5     -0.00000000
         5         4         1         1         6         6      0.00000000
         5         5         1         1         1         1     -0.00005387
         5         5         1         1         1         2      0.00010871
         5         5         1         1         1         3     -0.00009755
         5         5         1         1         1         4      0.00000000
         5         5         1         1         1         5      0.00000000
         5         5         1         1         1         6     -0.00013748
         5         5         1         1         2         1      0.00010871
         5         5         1         1         2         2     -0.00007693
         5         5         1         1         2         3      0.00009430
         5         5         1         1         2         4      0.00000000
         5         5         1         1         2         5     -0.00000000
         5         5         1         1         2         6      0.00017463
         5         5         1         1         3         1     -0.00009755
         5         5         1         1         3         2      0.00009430
         5         5         1         1         3         3     -0.00033724
         5         5         1         1         3         4      0.00000000
         5         5         1         1         3         5     -0.00000000
         5         5         1         1         3         6     -0.00007944
         5         5         1         1         4         1      0.00000000
         5         5         1         1         4         2      0.00000000
         5         5         1         1         4         3      0.00000000
         5         5         1         1         4         4     -0.00021023
         5         5         1         1         4         5      0.00014967
         5         5         1         1         4         6     -0.00000000
         5         5         1         1         5         1      0.00000000
         5         5         1         1         5         2     -0.00000000
         5         5         1         1         5         3     -0.00000000
         5         5         1         1         5         4      0.00014967
         5         5         1         1         5         5     -0.00217112
         5         5         1         1         5         6      0.00000000
         5         5         1         1         6         1     -0.00013748
         5         5         1         1         6         2      0.00017463
         5         5         1         1         6         3     -0.00007944
         5         5         1         1         6         4     -0.00000000
         5         5         1         1         6         5      0.00000000
         5         5         1         1         6         6     -0.00030529
         6         1         1         1         1         1      0.00000008
         6         1         1         1         1         2     -0.00000169
         6         1         1         1         1         3     -0.00000743
         6         1         1         1         1         4     -0.00000000
         6         1         1         1         1         5     -0.00000000
         6         1         1         1         1         6      0.00000460
         6         1         1         1         2         1     -0.00000275
         6         1         1         1         2         2      0.00000150
         6         1         1         1         2         3      0.00001255
         6         1         1         1         2         4     -0.00000000
         6         1         1         1         2         5     -0.00000000
         6         1         1         1         2         6     -0.00000987
         6         1         1         1         3         1     -0.00000378
         6         1         1         1         3         2      0.00000558
         6         1         1         1         3         3      0.00000255
         6         1         1         1         3         4     -0.00000000
         6         1         1         1         3         5      0.00000000
         6         1         1         1         3         6     -0.00001052
         6         1         1         1         4         1     -0.00000000
         6         1         1         1         4         2     -0.00000000
         6         1         1         1         4         3     -0.00000000
         6         1         1         1         4         4      0.00002352
         6         1         1         1         4         5      0.00000000
         6         1         1         1         4         6     -0.00000000
         6         1         1         1         5         1     -0.00000000
         6         1         1         1         5         2      0.00000000
         6         1         1         1         5         3      0.00000000
         6         1         1         1         5         4      0.00000000
         6         1         1         1         5         5      0.00002352
         6         1         1         1         5         6      0.00000000
         6         1         1         1         6         1      0.00000159
         6         1         1         1         6         2     -0.00000299
         6         1         1         1         6         3     -0.00001628
         6         1         1         1         6         4     -0.00000000
         6         1         1         1         6         5      0.00000000
         6         1         1         1         6         6      0.00001033
         6         2         1         1         1         1      0.00007044
         6         2         1         1         1         2     -0.00009897
         6         2         1         1         1         3      0.00019552
         6         2         1         1         1         4      0.00000000
         6         2         1         1         1         5      0.00000000
         6         2         1         1         1         6     -0.00001548
         6         2         1         1         2         1     -0.00007178
         6         2         1         1         2         2      0.00000119
         6         2         1         1         2         3     -0.00037611
         6         2         1         1         2         4      0.00000000
         6         2         1         1         2         5     -0.00000000
         6         2         1         1         2         6     -0.00007611
         6         2         1         1         3         1      0.00010866
         6         2         1         1         3         2     -0.00018179
         6         2         1         1         3         3      0.00005123
         6         2         1         1         3         4      0.00000000
         6         2         1         1         3         5     -0.00000000
         6         2         1         1         3         6      0.00020640
         6         2         1         1         4         1      0.00000000
         6         2         1         1         4         2      0.00000000
         6         2         1         1         4         3     -0.00000000
         6         2         1         1         4         4     -0.00034280
         6         2         1         1         4         5      0.00000000
         6         2         1         1         4         6      0.00000000
         6         2         1         1         5         1      0.00000000
         6         2         1         1         5         2     -0.00000000
         6         2         1         1         5         3      0.00000000
         6         2         1         1         5         4      0.00000000
         6         2         1         1         5         5     -0.00034280
         6         2         1         1         5         6      0.00000000
         6         2         1         1         6         1      0.00011785
         6         2         1         1         6         2     -0.00031190
         6         2         1         1         6         3      0.00029048
         6         2         1         1         6         4      0.00000000
         6         2         1         1         6         5     -0.00000000
         6         2         1         1         6         6     -0.00004235
         6         3         1         1         1         1     -0.00015371
         6         3         1         1         1         2      0.00014681
         6         3         1         1         1         3      0.00035590
         6         3         1         1         1         4      0.00000000
         6         3         1         1         1         5     -0.00000000
         6         3         1         1         1         6     -0.00032225
         6         3         1         1         2         1      0.00014024
         6         3         1         1         2         2      0.00018448
         6         3         1         1         2         3     -0.00033631
         6         3         1         1         2         4     -0.00000000
         6         3         1         1         2         5      0.00000000
         6         3         1         1         2         6      0.00053602
         6         3         1         1         3         1     -0.00007560
         6         3         1         1         3         2      0.00028120
         6         3         1         1         3         3      0.00010956
         6         3         1         1         3         4      0.00000000
         6         3         1         1         3         5     -0.00000000
         6         3         1         1         3         6     -0.00008215
         6         3         1         1         4         1     -0.00000000
         6         3         1         1         4         2      0.00000000
         6         3         1         1         4         3     -0.00000000
         6         3         1         1         4         4      0.00004287
         6         3         1         1         4         5     -0.00000000
         6         3         1         1         4         6     -0.00000000
         6         3         1         1         5         1      0.00000000
         6         3         1         1         5         2     -0.00000000
         6         3         1         1         5         3      0.00000000
         6         3         1         1         5         4     -0.00000000
         6         3         1         1         5         5      0.00004287
         6         3         1         1         5         6      0.00000000
         6         3         1         1         6         1     -0.00028557
         6         3         1         1         6         2      0.00051411
         6         3         1         1         6         3      0.00062987
         6         3         1         1         6         4      0.00000000
         6         3         1         1         6         5     -0.00000000
         6         3         1         1         6         6     -0.00047694
         6         4         1         1         1         1     -0.00000000
         6         4         1         1         1         2      0.00000000
         6         4         1         1         1         3      0.00000000
         6         4         1         1         1         4     -0.00029910
         6         4         1         1         1         5     -0.00002270
         6         4         1         1         1         6     -0.00000000
         6         4         1         1         2         1     -0.00000000
         6         4         1         1         2         2     -0.00000000
         6         4         1         1         2         3     -0.00000000
         6         4         1         1         2         4      0.00056703
         6         4         1         1         2         5      0.00004303
         6         4         1         1         2         6      0.00000000
         6         4         1         1         3         1      0.00000000
         6         4         1         1         3         2      0.00000000
         6         4         1         1         3         3      0.00000000
         6         4         1         1         3         4     -0.00032015
         6         4         1         1         3         5     -0.00002430
         6         4         1         1         3         6     -0.00000000
         6         4         1         1         4         1      0.00018622
         6         4         1         1         4         2     -0.00004544
         6         4         1         1         4         3      0.00016942
         6         4         1         1         4         4     -0.00000000
         6         4         1         1         4         5      0.00000000
         6         4         1         1         4         6      0.00038230
         6         4         1         1         5         1      0.00001413
         6         4         1         1         5         2     -0.00000345
         6         4         1         1         5         3      0.00001286
         6         4         1         1         5         4     -0.00000000
         6         4         1         1         5         5     -0.00000000
         6         4         1         1         5         6      0.00002901
         6         4         1         1         6         1     -0.00000000
         6         4         1         1         6         2      0.00000000
         6         4         1         1         6         3      0.00000000
         6         4         1         1         6         4     -0.00051336
         6         4         1         1         6         5     -0.00003896
         6         4         1         1         6         6     -0.00000000
         6         5         1         1         1         1     -0.00000000
         6         5         1         1         1         2      0.00000000
         6         5         1         1         1         3      0.00000000
         6         5         1         1         1         4     -0.00002270
         6         5         1         1         1         5      0.00029910
         6         5         1         1         1         6     -0.00000000
         6         5         1         1         2         1      0.00000000
         6         5         1         1         2         2      0.00000000
         6         5         1         1         2         3     -0.00000000
         6         5         1         1         2         4      0.00004303
         6         5         1         1         2         5     -0.00056703
         6         5         1         1         2         6      0.00000000
         6         5         1         1         3         1     -0.00000000
         6         5         1         1         3         2      0.00000000
         6         5         1         1         3         3      0.00000000
         6         5         1         1         3         4     -0.00002430
         6         5         1         1         3         5      0.00032015
         6         5         1         1         3         6     -0.00000000
         6         5         1         1         4         1      0.00001413
         6         5         1         1         4         2     -0.00000345
         6         5         1         1         4         3      0.00001286
         6         5         1         1         4         4     -0.00000000
         6         5         1         1         4         5     -0.00000000
         6         5         1         1         4         6      0.00002901
         6         5         1         1         5         1     -0.00018622
         6         5         1         1         5         2      0.00004544
         6         5         1         1         5         3     -0.00016942
         6         5         1         1         5         4      0.00000000
         6         5         1         1         5         5     -0.00000000
         6         5         1         1         5         6     -0.00038230
         6         5         1         1         6         1     -0.00000000
         6         5         1         1         6         2      0.00000000
         6         5         1         1         6         3      0.00000000
         6         5         1         1         6         4     -0.00003896
         6         5         1         1         6         5      0.00051336
         6         5         1         1         6         6     -0.00000000
         6         6         1         1         1         1     -0.00781421
         6         6         1         1         1         2      0.00302276
         6         6         1         1         1         3     -0.00180961
         6         6         1         1         1         4      0.00000000
         6         6         1         1         1         5     -0.00000000
         6         6         1         1         1         6     -0.01060298
         6         6         1         1         2         1      0.00302276
         6         6         1         1         2         2     -0.01351072
         6         6         1         1         2         3      0.00043554
         6         6         1         1         2         4      0.00000000
         6         6         1         1         2         5     -0.00000000
         6         6         1         1         2         6     -0.00423186
         6         6         1         1         3         1     -0.00180961
         6         6         1         1         3         2      0.00043554
         6         6         1         1         3         3     -0.00377387
         6         6         1         1         3         4      0.00000000
         6         6         1         1         3         5     -0.00000000
         6         6         1         1         3         6     -0.00271660
         6         6         1         1         4         1      0.00000000
         6         6         1         1         4         2      0.00000000
         6         6         1         1         4         3      0.00000000
         6         6         1         1         4         4     -0.00667339
         6         6         1         1         4         5     -0.00000000
         6         6         1         1         4         6      0.00000000
         6         6         1         1         5         1     -0.00000000
         6         6         1         1         5         2     -0.00000000
         6         6         1         1         5         3     -0.00000000
         6         6         1         1         5         4     -0.00000000
         6         6         1         1         5         5     -0.00667339
         6         6         1         1         5         6     -0.00000000
         6         6         1         1         6         1     -0.01060298
         6         6         1         1         6         2     -0.00423186
         6         6         1         1         6         3     -0.00271660
         6         6         1         1         6         4      0.00000000
         6         6         1         1         6         5     -0.00000000
         6         6         1         1         6         6     -0.02208173
         7         1         1         1         1         1     -0.00000014
         7         1         1         1         1         2     -0.00000106
         7         1         1         1         1         3     -0.00000162
         7         1         1         1         1         4     -0.00000000
         7         1         1         1         1         5     -0.00000000
         7         1         1         1         1         6      0.00000121
         7         1         1         1         2         1      0.00000206
         7         1         1         1         2         2     -0.00000307
         7         1         1         1         2         3     -0.00000530
         7         1         1         1         2         4     -0.00000000
         7         1         1         1         2         5      0.00000000
         7         1         1         1         2         6      0.00000677
         7         1         1         1         3         1     -0.00000742
         7         1         1         1         3         2      0.00000968
         7         1         1         1         3         3      0.00000849
         7         1         1         1         3         4      0.00000000
         7         1         1         1         3         5      0.00000000
         7         1         1         1         3         6     -0.00002061
         7         1         1         1         4         1     -0.00000000
         7         1         1         1         4         2     -0.00000000
         7         1         1         1         4         3     -0.00000000
         7         1         1         1         4         4      0.00001201
         7         1         1         1         4         5      0.00000000
         7         1         1         1         4         6     -0.00000000
         7         1         1         1         5         1     -0.00000000
         7         1         1         1         5         2      0.00000000
         7         1         1         1         5         3     -0.00000000
         7         1         1         1         5         4      0.00000000
         7         1         1         1         5         5      0.00001201
         7         1         1         1         5         6      0.00000000
         7         1         1         1         6         1      0.00000311
         7         1         1         1         6         2     -0.00000534
         7         1         1         1         6         3     -0.00000457
         7         1         1         1         6         4     -0.00000000
         7         1         1         1         6         5     -0.00000000
         7         1         1         1         6         6      0.00000940
         7         2         1         1         1         1     -0.00009407
         7         2         1         1         1         2      0.00009556
         7         2         1         1         1         3      0.00013699
         7         2         1         1         1         4      0.00000000
         7         2         1         1         1         5      0.00000000
         7         2         1         1         1         6     -0.00022681
         7         2         1         1         2         1     -0.00002500
         7         2         1         1         2         2      0.00012210
         7         2         1         1         2         3      0.00021172
         7         2         1         1         2         4      0.00000000
         7         2         1         1         2         5     -0.00000000
         7         2         1         1         2         6     -0.00007798
         7         2         1         1         3         1      0.00026790
         7         2         1         1         3         2     -0.00026469
         7         2         1         1         3         3      0.00018019
         7         2         1         1         3         4      0.00000000
[...]
         9         3         1         1         5         6     -0.00063533
         9         3         1         1         6         1      0.00000000
         9         3         1         1         6         2     -0.00000000
         9         3         1         1         6         3      0.00000000
         9         3         1         1         6         4      0.00003164
         9         3         1         1         6         5      0.00018003
         9         3         1         1         6         6      0.00000000
         9         4         1         1         1         1      0.00003373
         9         4         1         1         1         2     -0.00001184
         9         4         1         1         1         3      0.00002745
         9         4         1         1         1         4      0.00000000
         9         4         1         1         1         5     -0.00000000
         9         4         1         1         1         6      0.00006979
         9         4         1         1         2         1      0.00001350
         9         4         1         1         2         2     -0.00000827
         9         4         1         1         2         3      0.00001976
         9         4         1         1         2         4     -0.00000000
         9         4         1         1         2         5     -0.00000000
         9         4         1         1         2         6      0.00001277
         9         4         1         1         3         1      0.00000581
         9         4         1         1         3         2      0.00000709
         9         4         1         1         3         3      0.00002117
         9         4         1         1         3         4     -0.00000000
         9         4         1         1         3         5     -0.00000000
         9         4         1         1         3         6      0.00000790
         9         4         1         1         4         1      0.00000000
         9         4         1         1         4         2      0.00000000
         9         4         1         1         4         3      0.00000000
         9         4         1         1         4         4     -0.00011716
         9         4         1         1         4         5      0.00014031
         9         4         1         1         4         6     -0.00000000
         9         4         1         1         5         1      0.00000000
         9         4         1         1         5         2      0.00000000
         9         4         1         1         5         3      0.00000000
         9         4         1         1         5         4     -0.00098720
         9         4         1         1         5         5     -0.00003370
         9         4         1         1         5         6     -0.00000000
         9         4         1         1         6         1      0.00004621
         9         4         1         1         6         2     -0.00002013
         9         4         1         1         6         3      0.00002243
         9         4         1         1         6         4     -0.00000000
         9         4         1         1         6         5      0.00000000
         9         4         1         1         6         6      0.00010501
         9         5         1         1         1         1     -0.00013223
         9         5         1         1         1         2      0.00004643
         9         5         1         1         1         3     -0.00010762
         9         5         1         1         1         4      0.00000000
         9         5         1         1         1         5     -0.00000000
         9         5         1         1         1         6     -0.00027365
         9         5         1         1         2         1     -0.00005292
         9         5         1         1         2         2      0.00003243
         9         5         1         1         2         3     -0.00007749
         9         5         1         1         2         4      0.00000000
         9         5         1         1         2         5     -0.00000000
         9         5         1         1         2         6     -0.00005007
         9         5         1         1         3         1     -0.00002277
         9         5         1         1         3         2     -0.00002779
         9         5         1         1         3         3     -0.00008301
         9         5         1         1         3         4      0.00000000
         9         5         1         1         3         5     -0.00000000
         9         5         1         1         3         6     -0.00003098
         9         5         1         1         4         1     -0.00000000
         9         5         1         1         4         2      0.00000000
         9         5         1         1         4         3      0.00000000
         9         5         1         1         4         4     -0.00012769
         9         5         1         1         4         5      0.00018552
         9         5         1         1         4         6     -0.00000000
         9         5         1         1         5         1     -0.00000000
         9         5         1         1         5         2      0.00000000
         9         5         1         1         5         3      0.00000000
         9         5         1         1         5         4     -0.00010205
         9         5         1         1         5         5      0.00071919
         9         5         1         1         5         6     -0.00000000
         9         5         1         1         6         1     -0.00018119
         9         5         1         1         6         2      0.00007891
         9         5         1         1         6         3     -0.00008794
         9         5         1         1         6         4      0.00000000
         9         5         1         1         6         5      0.00000000
         9         5         1         1         6         6     -0.00041172
         9         6         1         1         1         1      0.00000000
         9         6         1         1         1         2     -0.00000000
         9         6         1         1         1         3      0.00000000
         9         6         1         1         1         4     -0.00111482
         9         6         1         1         1         5     -0.00634285
         9         6         1         1         1         6      0.00000000
         9         6         1         1         2         1     -0.00000000
         9         6         1         1         2         2     -0.00000000
         9         6         1         1         2         3      0.00000000
         9         6         1         1         2         4      0.00035182
         9         6         1         1         2         5      0.00200169
         9         6         1         1         2         6     -0.00000000
         9         6         1         1         3         1     -0.00000000
         9         6         1         1         3         2      0.00000000
         9         6         1         1         3         3     -0.00000000
         9         6         1         1         3         4     -0.00084407
         9         6         1         1         3         5     -0.00480242
         9         6         1         1         3         6     -0.00000000
         9         6         1         1         4         1     -0.00166822
         9         6         1         1         4         2      0.00205030
         9         6         1         1         4         3     -0.00154858
         9         6         1         1         4         4      0.00000000
         9         6         1         1         4         5     -0.00000000
         9         6         1         1         4         6     -0.00138153
         9         6         1         1         5         1     -0.00949146
         9         6         1         1         5         2      0.01166534
         9         6         1         1         5         3     -0.00881076
         9         6         1         1         5         4     -0.00000000
         9         6         1         1         5         5      0.00000000
         9         6         1         1         5         6     -0.00786033
         9         6         1         1         6         1      0.00000000
         9         6         1         1         6         2     -0.00000000
         9         6         1         1         6         3     -0.00000000
         9         6         1         1         6         4     -0.00115491
         9         6         1         1         6         5     -0.00657096
         9         6         1         1         6         6     -0.00000000
         9         7         1         1         1         1      0.00000000
         9         7         1         1         1         2      0.00000000
         9         7         1         1         1         3      0.00000000
         9         7         1         1         1         4     -0.00036241
         9         7         1         1         1         5     -0.00206197
         9         7         1         1         1         6     -0.00000000
         9         7         1         1         2         1      0.00000000
         9         7         1         1         2         2     -0.00000000
         9         7         1         1         2         3      0.00000000
         9         7         1         1         2         4      0.00017338
         9         7         1         1         2         5      0.00098645
         9         7         1         1         2         6      0.00000000
         9         7         1         1         3         1      0.00000000
         9         7         1         1         3         2      0.00000000
         9         7         1         1         3         3     -0.00000000
         9         7         1         1         3         4     -0.00156163
         9         7         1         1         3         5     -0.00888501
         9         7         1         1         3         6     -0.00000000
         9         7         1         1         4         1      0.00005868
         9         7         1         1         4         2     -0.00059050
         9         7         1         1         4         3     -0.00410980
         9         7         1         1         4         4      0.00000000
         9         7         1         1         4         5     -0.00000000
         9         7         1         1         4         6      0.00045567
         9         7         1         1         5         1      0.00033388
         9         7         1         1         5         2     -0.00335972
         9         7         1         1         5         3     -0.02338308
         9         7         1         1         5         4     -0.00000000
         9         7         1         1         5         5      0.00000000
         9         7         1         1         5         6      0.00259255
         9         7         1         1         6         1     -0.00000000
         9         7         1         1         6         2      0.00000000
         9         7         1         1         6         3     -0.00000000
         9         7         1         1         6         4     -0.00008799
         9         7         1         1         6         5     -0.00050065
         9         7         1         1         6         6      0.00000000
         9         8         1         1         1         1     -0.00000000
         9         8         1         1         1         2      0.00000000
         9         8         1         1         1         3     -0.00000000
         9         8         1         1         1         4      0.00000000
         9         8         1         1         1         5     -0.00000000
         9         8         1         1         1         6     -0.00000000
         9         8         1         1         2         1      0.00000000
         9         8         1         1         2         2      0.00000000
         9         8         1         1         2         3     -0.00000000
         9         8         1         1         2         4     -0.00000000
         9         8         1         1         2         5      0.00000000
         9         8         1         1         2         6      0.00000000
         9         8         1         1         3         1     -0.00000000
         9         8         1         1         3         2     -0.00000000
         9         8         1         1         3         3      0.00000000
         9         8         1         1         3         4     -0.00000000
         9         8         1         1         3         5     -0.00000000
         9         8         1         1         3         6     -0.00000000
         9         8         1         1         4         1      0.00000000
         9         8         1         1         4         2     -0.00000000
         9         8         1         1         4         3      0.00000000
         9         8         1         1         4         4     -0.00611440
         9         8         1         1         4         5     -0.00664969
         9         8         1         1         4         6      0.00000000
         9         8         1         1         5         1      0.00000000
         9         8         1         1         5         2      0.00000000
         9         8         1         1         5         3      0.00000000
         9         8         1         1         5         4     -0.02706402
         9         8         1         1         5         5      0.00611440
         9         8         1         1         5         6     -0.00000000
         9         8         1         1         6         1     -0.00000000
         9         8         1         1         6         2     -0.00000000
         9         8         1         1         6         3     -0.00000000
         9         8         1         1         6         4     -0.00000000
         9         8         1         1         6         5     -0.00000000
         9         8         1         1         6         6     -0.00000000
         9         9         1         1         1         1     -0.00893321
         9         9         1         1         1         2     -0.00393044
         9         9         1         1         1         3     -0.00067257
         9         9         1         1         1         4     -0.00000000
         9         9         1         1         1         5      0.00000000
         9         9         1         1         1         6     -0.00602423
         9         9         1         1         2         1     -0.00393044
         9         9         1         1         2         2     -0.01233178
         9         9         1         1         2         3      0.00706017
         9         9         1         1         2         4      0.00000000
         9         9         1         1         2         5     -0.00000000
         9         9         1         1         2         6     -0.00087353
         9         9         1         1         3         1     -0.00067257
         9         9         1         1         3         2      0.00706017
         9         9         1         1         3         3     -0.01053500
         9         9         1         1         3         4      0.00000000
         9         9         1         1         3         5      0.00000000
         9         9         1         1         3         6     -0.00124349
         9         9         1         1         4         1     -0.00000000
         9         9         1         1         4         2      0.00000000
         9         9         1         1         4         3      0.00000000
         9         9         1         1         4         4     -0.00480795
         9         9         1         1         4         5     -0.00611440
         9         9         1         1         4         6      0.00000000
         9         9         1         1         5         1      0.00000000
         9         9         1         1         5         2     -0.00000000
         9         9         1         1         5         3      0.00000000
         9         9         1         1         5         4     -0.00611440
         9         9         1         1         5         5     -0.03852167
         9         9         1         1         5         6      0.00000000
         9         9         1         1         6         1     -0.00602423
         9         9         1         1         6         2     -0.00087353
         9         9         1         1         6         3     -0.00124349
         9         9         1         1         6         4      0.00000000
         9         9         1         1         6         5      0.00000000
         9         9         1         1         6         6     -0.00569120


 RESULTS
 =======

  Reference energy                   -459.608317213097

  Correlated core orbitals:             1.1       2.1       3.1       4.1       5.1
  Orbital energies:                  -104.8130  -10.5885   -8.0656   -8.0444   -8.0444

  CISD core-core energy                -0.001524977916
  CISD core-valence energy             -0.000717157041
  CISD valence correlation energy      -0.043723421596

  CISD singlet pair energy             -0.035240172670
  CISD triplet pair energy             -0.010711216585
  CISD correlation energy              -0.045965556553

 !CISD total energy                  -459.654282769650

 Timing summary (sec):

 STEP                 CPU(USER)    SYS     CPU(TOT)    WALL
 Transformation          0.01      0.00      0.01      0.01
 CCSD iterations         0.10      0.03      0.13      0.14

 Program statistics:

 Available memory in ccsd:                39998876
 Min. memory needed in ccsd:                 14983
 Max. memory used in ccsd:                   14983
 Max. memory used in cckext:                 58529 (16 integral passes)



 **********************************************************************************************************************************
 DATASETS  * FILE   NREC   LENGTH (MB)   RECORD NAMES
              1      20       30.10       500      700      610      900      950      970     1000      129      960     1100   
                                          VAR     GEOM    BASINP   SYMINP    ZMAT    AOBASIS   BASIS     P2S    ABASIS      S 
                                         1400     1410     1200     1210     1080     1600     1650     1300     1700     1380   
                                           T        V       H0       H01     AOSYM     SMH    MOLCAS    ERIS     OPER     JKOP   

              3       5       14.77       500      610      700     1000     2100   
                                          VAR    BASINP    GEOM     BASIS     RHF  

 PROGRAMS   *        TOTAL      CISD       INT   RESTART
 CPU TIMES  *         0.45      0.18      0.14      0.01
 REAL TIME  *         0.65 SEC
 DISK USED  *        49.44 MB
 **********************************************************************************************************************************
 Molecular orbitals read from record     2100.3  Type=RHF/CANONICAL (state 1.1)
 Occupation numbers read from record     2100.3  Type=RHF/RHF (state 1.1)
 Orbital energies read from record       2100.3  Type=RHF/CANONICAL (state 1.1)
 Redundancy group numbers read from rec  2100.3  Type=RHF/RHF (state 1.1)

 CISD/6-31G energy=   -459.654282769650

            CISD
   -459.65428277
 **********************************************************************************************************************************
 Molpro calculation terminated
