
 Primary working directories    : /scr/yuriaoto/job.023517/molpro.ISAxKdw05i
 Secondary working directories  : /scr/yuriaoto/job.023517/molpro.ISAxKdw05i
 Wavefunction directory         : /scr/yuriaoto/job.023517/
 Main file repository           : /scr/yuriaoto/job.023517/molpro.ISAxKdw05i/

 id        : yuriaoto

 Nodes             nprocs
 t-rex.ufabc.int.br    1

 Using customized tuning parameters: mindgm=8; mindgv=16; mindgc=1; mindgr=1; noblas=0; minvec=7
 default implementation of scratch files=df  


 Variables initialized (933), CPU time= 0.00 sec
 ***,
 memory,40,m
 gprint,orbital,basis,civector
 gthresh,thrprint=0,printci=0.0
 file,3,wfu.dat,old
 
 {ccsd,CC_NORM_MAX=10000.0
 thresh,printci=0.0,ENERGY=1.0E-10,COEFF=1.0E-12
 print,ref=1
 wf,24,1,0;
 }
 
 Commands  initialized (760), CPU time= 0.01 sec, 617 directives.
 Default parameters read. Elapsed time= 0.03 sec

 Checking input...
 Passed
1


                                         ***  PROGRAM SYSTEM MOLPRO  ***
                                       Copyright, TTI GmbH Stuttgart, 2015
                                    Version 2019.2 linked Abr  7 2019 15:10:35


 **********************************************************************************************************************************
 LABEL *                                                                                 
  64 bit serial version                                                                  DATE: 02-Jun-20          TIME: 01:04:36  
 **********************************************************************************************************************************

 SHA1:             3a8a58c585c929645742fb5a1b7541a4ad1da699
 **********************************************************************************************************************************


 THRESHOLDS:

 ZERO    =  1.00D-12  ONEINT  =  1.00D-12  TWOINT  =  1.00D-11  PREFAC  =  1.00D-14  XXXXXX  =  1.00D-09  EORDER  =  1.00D-04
 ENERGY  =  0.00D+00  ETEST   =  0.00D+00  EDENS   =  0.00D+00  THRDEDEF=  1.00D-06  GRADIENT=  1.00D-02  STEP    =  1.00D-03
 ORBITAL =  1.00D-05  CIVEC   =  1.00D-05  COEFF   =  1.00D-04  PRINTCI =  0.00D+00  PUNCHCI =  9.90D+01  OPTGRAD =  3.00D-04
 OPTENERG=  1.00D-06  OPTSTEP =  3.00D-04  THRGRAD =  1.00D-10  COMPRESS=  1.00D-11  VARMIN  =  1.00D-07  VARMAX  =  1.00D-03
 THRDOUB =  0.00D+00  THRDIV  =  1.00D-05  THRRED  =  1.00D-07  THRPSP  =  1.00D+00  THRDC   =  1.00D-10  THRCS   =  1.00D-10
 THRNRM  =  1.00D-08  THREQ   =  0.00D+00  THRDE   =  1.00D+00  THRREF  =  1.00D-05  SPARFAC =  1.00D+00  THRDLP  =  1.00D-07
 THRDIA  =  1.00D-10  THRDLS  =  1.00D-07  THRGPS  =  0.00D+00  THRKEX  =  0.00D+00  THRDIS  =  2.00D-01  THRVAR  =  1.00D-10
 THRLOC  =  1.00D-06  THRGAP  =  1.00D-06  THRLOCT = -1.00D+00  THRGAPT = -1.00D+00  THRORB  =  1.00D-06  THRMLTP =  0.00D+00
 THRCPQCI=  1.00D-10  KEXTA   =  0.00D+00  THRCOARS=  0.00D+00  SYMTOL  =  1.00D-06  GRADTOL =  1.00D-06  THROVL  =  1.00D-08
 THRORTH =  1.00D-08  GRID    =  1.00D-06  GRIDMAX =  1.00D-03  DTMAX   =  0.00D+00  THROCCDE=  1.00D-01  THROCCDE=  1.00D-01
 THRPRINT=  0.00D+00


 Variable memory set to   40000000 words,  buffer space 



 Permanent file  3  wfu.dat  assigned.  Implementation=df    Size= 14.23 MB


 PROGRAM * RESTART 


 Reading variables from file 3

 _FNUC           =      0.00000000
 _BASIS          =    6-31G
 _NELEC          =     24.00000000
 _PROGRAM        =    RHF-SCF
 _DMZ            =      0.00000000
 _DMX_SCF        =      0.00000000
 _DMY_SCF        =      0.00000000
 _DMZ_SCF        =      0.00000000
 _HOMO           =      2.20000000
 _EHOMO          =     -0.16514840
 _LUMO           =      2.40000000
 _ELUMO          =      0.01204027
 _ENERGY         =    -59.51321462
 _ENERGY_METHOD  =    RHF
 _ENERGY_BASIS   =    6-31G
 _ENUC           =     36.18727945
 _EPS1(1:9)      =     -2.44606597    -0.27154166     0.01387583     0.01387583     0.01974738     0.16967502
                        0.16967502     0.17748779     0.65577377
 _EPS2(1:9)      =     -2.44595365    -0.16514840     0.06583970     0.08024304     0.10918713     0.20947133
                        0.21026523     0.32305975     0.77430831
 _EPS3(1:9)      =     -2.44595365    -0.16514840     0.06583970     0.08024304     0.10918713     0.20947133
                        0.21026523     0.32305975     0.77430831
 _EPS4(1:9)      =     -2.44586539     0.01204027     0.11857342     0.14587398     0.15178986     0.25645901
                        0.35040202     0.43718871     1.07484211
 _EPS5(1:9)      =     -2.44595365    -0.16514840     0.06583970     0.08024304     0.10918713     0.20947133
                        0.21026523     0.32305975     0.77430831
 _EPS6(1:9)      =     -2.44586539     0.01204027     0.11857342     0.14587398     0.15178986     0.25645901
                        0.35040202     0.43718871     1.07484211
 _EPS7(1:9)      =     -2.44586539     0.01204027     0.11857342     0.14587398     0.15178986     0.25645901
                        0.35040202     0.43718871     1.07484211
 _EPS8(1:9)      =     -2.44578039     0.06692471     0.18257294     0.18257294     0.19933103     0.41404808
                        0.41404808     0.60754299     1.43040756
 _IPROC_MPP      =      0.00000000
 _IPROC_MPPX     =      0.00000000
 _ORBITAL        =   2100.30000000
 _STATUS         =      1.00000000
 _DATE           =    23-Mar-20
 _LASTORB        =    RHF
 _OUTPUT         =    /scr/yuriaoto/job.022842/RHF.xml
 _PGROUP         =    D2h 
 _TIME           =    15:18:14
 R               =      1.50000000

 Geometry written to block  1 of record 700


 **********************************************************************************************************************************
 DATASETS  * FILE   NREC   LENGTH (MB)   RECORD NAMES
              3       5       14.92       500      610      700     1000     2100   
                                          VAR    BASINP    GEOM     BASIS     RHF  

 PROGRAMS   *        TOTAL   RESTART
 CPU TIMES  *         0.09      0.01
 REAL TIME  *         0.11 SEC
 DISK USED  *        27.01 MB
 **********************************************************************************************************************************


 Recomputing integrals since basis changed


 Using spherical harmonics

 Library entry LI     S 6-31G                selected for orbital group  1
 Library entry LI     P 6-31G                selected for orbital group  1


 PROGRAM * SEWARD (Integral evaluation for generally contracted gaussian basis sets)     Author: Roland Lindh, 1990

 Geometry written to block  1 of record 700


 Point group  D2h 



 ATOMIC COORDINATES

 NR  ATOM    CHARGE       X              Y              Z

   1  LI1     3.00    2.834589187    2.834589187    2.834589187
   2  LI2     3.00   -2.834589187   -2.834589187    2.834589187
   3  LI3     3.00    2.834589187   -2.834589187    2.834589187
   4  LI4     3.00   -2.834589187    2.834589187    2.834589187
   5  LI5     3.00    2.834589187    2.834589187   -2.834589187
   6  LI6     3.00   -2.834589187   -2.834589187   -2.834589187
   7  LI7     3.00    2.834589187   -2.834589187   -2.834589187
   8  LI8     3.00   -2.834589187    2.834589187   -2.834589187

 Bond lengths in Bohr (Angstrom)

 1-3  5.669178374  1-4  5.669178374  1-5  5.669178374  2-3  5.669178374  2-4  5.669178374
     ( 3.000000000)     ( 3.000000000)     ( 3.000000000)     ( 3.000000000)     ( 3.000000000)

 2-6  5.669178374  3-7  5.669178374  4-8  5.669178374  5-7  5.669178374  5-8  5.669178374
     ( 3.000000000)     ( 3.000000000)     ( 3.000000000)     ( 3.000000000)     ( 3.000000000)

 6-7  5.669178374  6-8  5.669178374
     ( 3.000000000)     ( 3.000000000)

 Bond angles

  1-3-2   90.00000000   1-3-7   90.00000000   1-4-2   90.00000000   1-4-8   90.00000000

  1-5-7   90.00000000   1-5-8   90.00000000   2-3-7   90.00000000   2-4-8   90.00000000

  2-6-7   90.00000000   2-6-8   90.00000000   3-1-4   90.00000000   3-1-5   90.00000000

  3-2-4   90.00000000   3-2-6   90.00000000   3-7-5   90.00000000   3-7-6   90.00000000

  4-1-5   90.00000000   4-2-6   90.00000000   4-8-5   90.00000000   4-8-6   90.00000000

  5-7-6   90.00000000   5-8-6   90.00000000   7-5-8   90.00000000   7-6-8   90.00000000


 BASIS DATA

   Nr Sym  Nuc  Type         Exponents   Contraction coefficients

    1.1 Ag    1  1s         642.418910     0.002143
              2  1s          96.798515     0.016209
              3  1s          22.091121     0.077316
              4  1s           6.201070     0.245786
              5  1s           1.935118     0.470189
              6  1s           0.636736     0.345471
              7  1s    
              8  1s    
    2.1 Ag    1  1s           2.324918    -0.035092
              2  1s           0.632430    -0.191233
              3  1s           0.079053     1.083988
              4  1s    
              5  1s    
              6  1s    
              7  1s    
              8  1s    
    3.1 Ag    1  1s           0.035962     1.000000
              2  1s    
              3  1s    
              4  1s    
              5  1s    
              6  1s    
              7  1s    
              8  1s    
    4.1 Ag    1  2px          2.324918     0.008942
              2 -2px          0.632430     0.141009
              3  2px          0.079053     0.945364
              4 -2px   
              5  2px   
              6 -2px   
              7  2px   
              8 -2px   
    5.1 Ag    1  2py          2.324918     0.008942
              2 -2py          0.632430     0.141009
              3 -2py          0.079053     0.945364
              4  2py   
              5  2py   
              6 -2py   
              7 -2py   
              8  2py   
    6.1 Ag    1  2pz          2.324918     0.008942
              2  2pz          0.632430     0.141009
              3  2pz          0.079053     0.945364
              4  2pz   
              5 -2pz   
              6 -2pz   
              7 -2pz   
              8 -2pz   
    7.1 Ag    1  2px          0.035962     1.000000
              2 -2px   
              3  2px   
              4 -2px   
              5  2px   
              6 -2px   
              7  2px   
              8 -2px   
    8.1 Ag    1  2py          0.035962     1.000000
              2 -2py   
              3 -2py   
              4  2py   
              5  2py   
              6 -2py   
              7 -2py   
              8  2py   
    9.1 Ag    1  2pz          0.035962     1.000000
              2  2pz   
              3  2pz   
              4  2pz   
              5 -2pz   
              6 -2pz   
              7 -2pz   
              8 -2pz   
    1.2 B3u   1  1s         642.418910     0.002143
              2 -1s          96.798515     0.016209
              3  1s          22.091121     0.077316
              4 -1s           6.201070     0.245786
              5  1s           1.935118     0.470189
              6 -1s           0.636736     0.345471
              7  1s    
              8 -1s    
    2.2 B3u   1  1s           2.324918    -0.035092
              2 -1s           0.632430    -0.191233
              3  1s           0.079053     1.083988
              4 -1s    
              5  1s    
              6 -1s    
              7  1s    
              8 -1s    
    3.2 B3u   1  1s           0.035962     1.000000
              2 -1s    
              3  1s    
              4 -1s    
              5  1s    
              6 -1s    
              7  1s    
              8 -1s    
    4.2 B3u   1  2px          2.324918     0.008942
              2  2px          0.632430     0.141009
              3  2px          0.079053     0.945364
              4  2px   
              5  2px   
              6  2px   
              7  2px   
              8  2px   
    5.2 B3u   1  2py          2.324918     0.008942
              2  2py          0.632430     0.141009
              3 -2py          0.079053     0.945364
              4 -2py   
              5  2py   
              6  2py   
              7 -2py   
              8 -2py   
    6.2 B3u   1  2pz          2.324918     0.008942
              2 -2pz          0.632430     0.141009
              3  2pz          0.079053     0.945364
              4 -2pz   
              5 -2pz   
              6  2pz   
              7 -2pz   
              8  2pz   
    7.2 B3u   1  2px          0.035962     1.000000
              2  2px   
              3  2px   
              4  2px   
              5  2px   
              6  2px   
              7  2px   
              8  2px   
    8.2 B3u   1  2py          0.035962     1.000000
              2  2py   
              3 -2py   
              4 -2py   
              5  2py   
              6  2py   
              7 -2py   
              8 -2py   
    9.2 B3u   1  2pz          0.035962     1.000000
              2 -2pz   
              3  2pz   
              4 -2pz   
              5 -2pz   
              6  2pz   
              7 -2pz   
              8  2pz   
    1.3 B2u   1  1s         642.418910     0.002143
              2 -1s          96.798515     0.016209
              3 -1s          22.091121     0.077316
              4  1s           6.201070     0.245786
              5  1s           1.935118     0.470189
              6 -1s           0.636736     0.345471
              7 -1s    
              8  1s    
    2.3 B2u   1  1s           2.324918    -0.035092
              2 -1s           0.632430    -0.191233
              3 -1s           0.079053     1.083988
              4  1s    
              5  1s    
              6 -1s    
              7 -1s    
              8  1s    
    3.3 B2u   1  1s           0.035962     1.000000
              2 -1s    
              3 -1s    
              4  1s    
              5  1s    
              6 -1s    
              7 -1s    
              8  1s    
    4.3 B2u   1  2py          2.324918     0.008942
              2  2py          0.632430     0.141009
              3  2py          0.079053     0.945364
              4  2py   
              5  2py   
              6  2py   
              7  2py   
              8  2py   
    5.3 B2u   1  2px          2.324918     0.008942
              2  2px          0.632430     0.141009
              3 -2px          0.079053     0.945364
              4 -2px   
              5  2px   
              6  2px   
              7 -2px   
              8 -2px   
    6.3 B2u   1  2pz          2.324918     0.008942
              2 -2pz          0.632430     0.141009
              3 -2pz          0.079053     0.945364
              4  2pz   
              5 -2pz   
              6  2pz   
              7  2pz   
              8 -2pz   
    7.3 B2u   1  2py          0.035962     1.000000
              2  2py   
              3  2py   
              4  2py   
              5  2py   
              6  2py   
              7  2py   
              8  2py   
    8.3 B2u   1  2px          0.035962     1.000000
              2  2px   
              3 -2px   
              4 -2px   
              5  2px   
              6  2px   
              7 -2px   
              8 -2px   
    9.3 B2u   1  2pz          0.035962     1.000000
              2 -2pz   
              3 -2pz   
              4  2pz   
              5 -2pz   
              6  2pz   
              7  2pz   
              8 -2pz   
    1.4 B1g   1  1s         642.418910     0.002143
              2  1s          96.798515     0.016209
              3 -1s          22.091121     0.077316
              4 -1s           6.201070     0.245786
              5  1s           1.935118     0.470189
              6  1s           0.636736     0.345471
              7 -1s    
              8 -1s    
    2.4 B1g   1  1s           2.324918    -0.035092
              2  1s           0.632430    -0.191233
              3 -1s           0.079053     1.083988
              4 -1s    
              5  1s    
              6  1s    
              7 -1s    
              8 -1s    
    3.4 B1g   1  1s           0.035962     1.000000
              2  1s    
              3 -1s    
              4 -1s    
              5  1s    
              6  1s    
              7 -1s    
              8 -1s    
    4.4 B1g   1  2py          2.324918     0.008942
              2 -2py          0.632430     0.141009
              3  2py          0.079053     0.945364
              4 -2py   
              5  2py   
              6 -2py   
              7  2py   
              8 -2py   
    5.4 B1g   1  2px          2.324918     0.008942
              2 -2px          0.632430     0.141009
              3 -2px          0.079053     0.945364
              4  2px   
              5  2px   
              6 -2px   
              7 -2px   
              8  2px   
    6.4 B1g   1  2pz          2.324918     0.008942
              2  2pz          0.632430     0.141009
              3 -2pz          0.079053     0.945364
              4 -2pz   
              5 -2pz   
              6 -2pz   
              7  2pz   
              8  2pz   
    7.4 B1g   1  2py          0.035962     1.000000
              2 -2py   
              3  2py   
              4 -2py   
              5  2py   
              6 -2py   
              7  2py   
              8 -2py   
    8.4 B1g   1  2px          0.035962     1.000000
              2 -2px   
              3 -2px   
              4  2px   
              5  2px   
              6 -2px   
              7 -2px   
              8  2px   
    9.4 B1g   1  2pz          0.035962     1.000000
              2  2pz   
              3 -2pz   
              4 -2pz   
              5 -2pz   
              6 -2pz   
              7  2pz   
              8  2pz   
    1.5 B1u   1  1s         642.418910     0.002143
              2  1s          96.798515     0.016209
              3  1s          22.091121     0.077316
              4  1s           6.201070     0.245786
              5 -1s           1.935118     0.470189
              6 -1s           0.636736     0.345471
              7 -1s    
              8 -1s    
    2.5 B1u   1  1s           2.324918    -0.035092
              2  1s           0.632430    -0.191233
              3  1s           0.079053     1.083988
              4  1s    
              5 -1s    
              6 -1s    
              7 -1s    
              8 -1s    
    3.5 B1u   1  1s           0.035962     1.000000
              2  1s    
              3  1s    
              4  1s    
              5 -1s    
              6 -1s    
              7 -1s    
              8 -1s    
    4.5 B1u   1  2pz          2.324918     0.008942
              2  2pz          0.632430     0.141009
              3  2pz          0.079053     0.945364
              4  2pz   
              5  2pz   
              6  2pz   
              7  2pz   
              8  2pz   
    5.5 B1u   1  2px          2.324918     0.008942
              2 -2px          0.632430     0.141009
              3  2px          0.079053     0.945364
              4 -2px   
              5 -2px   
              6  2px   
              7 -2px   
              8  2px   
    6.5 B1u   1  2py          2.324918     0.008942
              2 -2py          0.632430     0.141009
              3 -2py          0.079053     0.945364
              4  2py   
              5 -2py   
              6  2py   
              7  2py   
              8 -2py   
    7.5 B1u   1  2pz          0.035962     1.000000
              2  2pz   
              3  2pz   
              4  2pz   
              5  2pz   
              6  2pz   
              7  2pz   
              8  2pz   
    8.5 B1u   1  2px          0.035962     1.000000
              2 -2px   
              3  2px   
              4 -2px   
              5 -2px   
              6  2px   
              7 -2px   
              8  2px   
    9.5 B1u   1  2py          0.035962     1.000000
              2 -2py   
              3 -2py   
              4  2py   
              5 -2py   
              6  2py   
              7  2py   
              8 -2py   
    1.6 B2g   1  1s         642.418910     0.002143
              2 -1s          96.798515     0.016209
              3  1s          22.091121     0.077316
              4 -1s           6.201070     0.245786
              5 -1s           1.935118     0.470189
              6  1s           0.636736     0.345471
              7 -1s    
              8  1s    
    2.6 B2g   1  1s           2.324918    -0.035092
              2 -1s           0.632430    -0.191233
              3  1s           0.079053     1.083988
              4 -1s    
              5 -1s    
              6  1s    
              7 -1s    
              8  1s    
    3.6 B2g   1  1s           0.035962     1.000000
              2 -1s    
              3  1s    
              4 -1s    
              5 -1s    
              6  1s    
              7 -1s    
              8  1s    
    4.6 B2g   1  2pz          2.324918     0.008942
              2 -2pz          0.632430     0.141009
              3  2pz          0.079053     0.945364
              4 -2pz   
              5  2pz   
              6 -2pz   
              7  2pz   
              8 -2pz   
    5.6 B2g   1  2px          2.324918     0.008942
              2  2px          0.632430     0.141009
              3  2px          0.079053     0.945364
              4  2px   
              5 -2px   
              6 -2px   
              7 -2px   
              8 -2px   
    6.6 B2g   1  2py          2.324918     0.008942
              2  2py          0.632430     0.141009
              3 -2py          0.079053     0.945364
              4 -2py   
              5 -2py   
              6 -2py   
              7  2py   
              8  2py   
    7.6 B2g   1  2pz          0.035962     1.000000
              2 -2pz   
              3  2pz   
              4 -2pz   
              5  2pz   
              6 -2pz   
              7  2pz   
              8 -2pz   
    8.6 B2g   1  2px          0.035962     1.000000
              2  2px   
              3  2px   
              4  2px   
              5 -2px   
              6 -2px   
              7 -2px   
              8 -2px   
    9.6 B2g   1  2py          0.035962     1.000000
              2  2py   
              3 -2py   
              4 -2py   
              5 -2py   
              6 -2py   
              7  2py   
              8  2py   
    1.7 B3g   1  1s         642.418910     0.002143
              2 -1s          96.798515     0.016209
              3 -1s          22.091121     0.077316
              4  1s           6.201070     0.245786
              5 -1s           1.935118     0.470189
              6  1s           0.636736     0.345471
              7  1s    
              8 -1s    
    2.7 B3g   1  1s           2.324918    -0.035092
              2 -1s           0.632430    -0.191233
              3 -1s           0.079053     1.083988
              4  1s    
              5 -1s    
              6  1s    
              7  1s    
              8 -1s    
    3.7 B3g   1  1s           0.035962     1.000000
              2 -1s    
              3 -1s    
              4  1s    
              5 -1s    
              6  1s    
              7  1s    
              8 -1s    
    4.7 B3g   1  2pz          2.324918     0.008942
              2 -2pz          0.632430     0.141009
              3 -2pz          0.079053     0.945364
              4  2pz   
              5  2pz   
              6 -2pz   
              7 -2pz   
              8  2pz   
    5.7 B3g   1  2py          2.324918     0.008942
              2  2py          0.632430     0.141009
              3  2py          0.079053     0.945364
              4  2py   
              5 -2py   
              6 -2py   
              7 -2py   
              8 -2py   
    6.7 B3g   1  2px          2.324918     0.008942
              2  2px          0.632430     0.141009
              3 -2px          0.079053     0.945364
              4 -2px   
              5 -2px   
              6 -2px   
              7  2px   
              8  2px   
    7.7 B3g   1  2pz          0.035962     1.000000
              2 -2pz   
              3 -2pz   
              4  2pz   
              5  2pz   
              6 -2pz   
              7 -2pz   
              8  2pz   
    8.7 B3g   1  2py          0.035962     1.000000
              2  2py   
              3  2py   
              4  2py   
              5 -2py   
              6 -2py   
              7 -2py   
              8 -2py   
    9.7 B3g   1  2px          0.035962     1.000000
              2  2px   
              3 -2px   
              4 -2px   
              5 -2px   
              6 -2px   
              7  2px   
              8  2px   
    1.8 Au    1  1s         642.418910     0.002143
              2  1s          96.798515     0.016209
              3 -1s          22.091121     0.077316
              4 -1s           6.201070     0.245786
              5 -1s           1.935118     0.470189
              6 -1s           0.636736     0.345471
              7  1s    
              8  1s    
    2.8 Au    1  1s           2.324918    -0.035092
              2  1s           0.632430    -0.191233
              3 -1s           0.079053     1.083988
              4 -1s    
              5 -1s    
              6 -1s    
              7  1s    
              8  1s    
    3.8 Au    1  1s           0.035962     1.000000
              2  1s    
              3 -1s    
              4 -1s    
              5 -1s    
              6 -1s    
              7  1s    
              8  1s    
    4.8 Au    1  2pz          2.324918     0.008942
              2  2pz          0.632430     0.141009
              3 -2pz          0.079053     0.945364
              4 -2pz   
              5  2pz   
              6  2pz   
              7 -2pz   
              8 -2pz   
    5.8 Au    1  2py          2.324918     0.008942
              2 -2py          0.632430     0.141009
              3  2py          0.079053     0.945364
              4 -2py   
              5 -2py   
              6  2py   
              7 -2py   
              8  2py   
    6.8 Au    1  2px          2.324918     0.008942
              2 -2px          0.632430     0.141009
              3 -2px          0.079053     0.945364
              4  2px   
              5 -2px   
              6  2px   
              7  2px   
              8 -2px   
    7.8 Au    1  2pz          0.035962     1.000000
              2  2pz   
              3 -2pz   
              4 -2pz   
              5  2pz   
              6  2pz   
              7 -2pz   
              8 -2pz   
    8.8 Au    1  2py          0.035962     1.000000
              2 -2py   
              3  2py   
              4 -2py   
              5 -2py   
              6  2py   
              7 -2py   
              8  2py   
    9.8 Au    1  2px          0.035962     1.000000
              2 -2px   
              3 -2px   
              4  2px   
              5 -2px   
              6  2px   
              7  2px   
              8 -2px   

 NUCLEAR CHARGE:                   24
 NUMBER OF PRIMITIVE AOS:         176
 NUMBER OF SYMMETRY AOS:          176
 NUMBER OF CONTRACTIONS:           72   (    9Ag  +    9B3u +    9B2u +    9B1g +    9B1u +    9B2g +    9B3g +    9Au  )
 NUMBER OF CORE ORBITALS:           8   (    1Ag  +    1B3u +    1B2u +    1B1g +    1B1u +    1B2g +    1B3g +    1Au  )
 NUMBER OF VALENCE ORBITALS:       32   (    4Ag  +    4B3u +    4B2u +    4B1g +    4B1u +    4B2g +    4B3g +    4Au  )


 NUCLEAR REPULSION ENERGY   36.18727945

 Eigenvalues of metric

         1 0.236E-01 0.207E+00 0.293E+00 0.293E+00 0.956E+00 0.241E+01 0.382E+01 0.382E+01
         2 0.451E-02 0.101E+00 0.150E+00 0.186E+00 0.354E+00 0.968E+00 0.153E+01 0.162E+01
         3 0.451E-02 0.101E+00 0.150E+00 0.186E+00 0.354E+00 0.968E+00 0.153E+01 0.162E+01
         4 0.775E-03 0.268E-01 0.539E-01 0.110E+00 0.172E+00 0.338E+00 0.796E+00 0.964E+00
         5 0.451E-02 0.101E+00 0.150E+00 0.186E+00 0.354E+00 0.968E+00 0.153E+01 0.162E+01
         6 0.775E-03 0.268E-01 0.539E-01 0.110E+00 0.172E+00 0.338E+00 0.796E+00 0.964E+00
         7 0.775E-03 0.268E-01 0.539E-01 0.110E+00 0.172E+00 0.338E+00 0.796E+00 0.964E+00
         8 0.161E-03 0.932E-02 0.932E-02 0.480E-01 0.104E+00 0.201E+00 0.201E+00 0.930E+00


 Contracted 2-electron integrals neglected if value below      1.0D-11
 AO integral compression algorithm  1   Integral accuracy      1.0D-11

     8.126 MB (compressed) written to integral file ( 57.9%)


 NUMBER OF SORTED TWO-ELECTRON INTEGRALS:     453942.     BUFFER LENGTH:  32768
 NUMBER OF SEGMENTS:   1  SEGMENT LENGTH:     453942      RECORD LENGTH: 524288

 Memory used in sort:       1.01 MW

 SORT1 READ     1783296. AND WROTE      453942. INTEGRALS IN      2 RECORDS. CPU TIME:     0.02 SEC, REAL TIME:     0.02 SEC
 SORT2 READ      453942. AND WROTE      453942. INTEGRALS IN     31 RECORDS. CPU TIME:     0.13 SEC, REAL TIME:     0.16 SEC

 FILE SIZES:   FILE 1:    38.3 MBYTE,  FILE 4:     8.4 MBYTE,   TOTAL:     46.8 MBYTE

 OPERATOR DM      FOR CENTER  0  COORDINATES:    0.000000    0.000000    0.000000


 **********************************************************************************************************************************
 DATASETS  * FILE   NREC   LENGTH (MB)   RECORD NAMES
              1      19       32.37       500      700      610      900      950      970     1000      129      960     1100   
                                          VAR     GEOM    BASINP   SYMINP    ZMAT    AOBASIS   BASIS     P2S    ABASIS      S 
                                         1400     1410     1200     1210     1080     1600     1650     1300     1700   
                                           T        V       H0       H01     AOSYM     SMH    MOLCAS    ERIS     OPER   

              3       5       14.92       500      610      700     1000     2100   
                                          VAR    BASINP    GEOM     BASIS     RHF  

 PROGRAMS   *        TOTAL       INT   RESTART
 CPU TIMES  *         0.82      0.73      0.01
 REAL TIME  *         2.03 SEC
 DISK USED  *        62.05 MB
 **********************************************************************************************************************************


 PROGRAM * CCSD (Closed-shell coupled cluster)     Authors: C. Hampel, H.-J. Werner, 1991, M. Deegan, P.J. Knowles, 1992


 Input parameters for THRESH:

 ENERGY   =    1.00D-10
 COEFF    =    1.00D-12
 PRINTCI  =    0.000000
 THRPRINT =    0.000000

 Convergence thresholds:  THRVAR = 1.00D-24  THRDEN = 1.00D-10

 Number of core orbitals:           8 (   1   1   1   1   1   1   1   1 )
 Number of closed-shell orbitals:   4 (   1   1   1   0   1   0   0   0 )
 Number of external orbitals:      60 (   7   7   7   8   7   8   8   8 )

 Molecular orbitals read from record     2100.3  Type=RHF/CANONICAL (state 1.1)

 Number of N-1 electron functions:               4
 Number of N-2 electron functions:              10
 Number of singly external CSFs:                28
 Number of doubly external CSFs:              3724
 Total number of CSFs:                        3753

 Length of J-op  integral file:               0.00 MB
 Length of K-op  integral file:               0.08 MB
 Length of 3-ext integral record:             0.00 MB

 Integral transformation finished. Total CPU:   0.01 sec, npass=  1  Memory used:   0.15 MW

 Reference energy:                    -59.51321462

 MP2 singlet pair energy:              -0.07480825
 MP2 triplet pair energy:              -0.04042225
 MP2 correlation energy:               -0.11523050
 MP2 total energy:                    -59.62844512

 SCS-MP2 correlation energy:           -0.11492152   (PS=  1.200000  PT=  0.333333)
 SCS-MP2 total energy:                -59.62813615

 ITER.      SQ.NORM     CORR.ENERGY   TOTAL ENERGY   ENERGY CHANGE        DEN1      VAR(S)    VAR(P)  DIIS     TIME  TIME/IT
   1      1.26770994    -0.13021131   -59.64342594    -0.01498082    -0.00703042  0.90D-03  0.66D-02  1  1     0.03     0.01
   2      1.31475173    -0.13467728   -59.64789190    -0.00446597    -0.00788389  0.50D-04  0.13D-02  2  2     0.04     0.01
   3      1.34752064    -0.13513701   -59.64835163    -0.00045973    -0.00403169  0.13D-04  0.22D-03  3  3     0.05     0.01
   4      1.36032554    -0.13529051   -59.64850513    -0.00015350    -0.00083132  0.36D-05  0.34D-04  4  4     0.06     0.01
   5      1.36614214    -0.13541472   -59.64862934    -0.00012421    -0.00029620  0.23D-06  0.45D-05  5  5     0.07     0.01
   6      1.36716748    -0.13537814   -59.64859277     0.00003658    -0.00006457  0.52D-07  0.50D-06  6  6     0.07     0.01
   7      1.36739192    -0.13538193   -59.64859655    -0.00000378    -0.00001410  0.23D-07  0.86D-07  6  1     0.08     0.01
   8      1.36745248    -0.13538426   -59.64859888    -0.00000233    -0.00000077  0.87D-09  0.11D-07  6  2     0.09     0.01
   9      1.36745638    -0.13538400   -59.64859863     0.00000025     0.00000031  0.28D-09  0.14D-08  6  3     0.10     0.01
  10      1.36745832    -0.13538372   -59.64859835     0.00000028    -0.00000043  0.56D-10  0.19D-09  6  4     0.10     0.01
  11      1.36745883    -0.13538367   -59.64859830     0.00000005    -0.00000010  0.14D-10  0.27D-10  6  5     0.11     0.01
  12      1.36745904    -0.13538368   -59.64859830    -0.00000000     0.00000003  0.41D-11  0.75D-11  6  6     0.12     0.01
  13      1.36745953    -0.13538365   -59.64859828     0.00000002     0.00000002  0.11D-11  0.15D-11  6  1     0.13     0.01
  14      1.36746000    -0.13538365   -59.64859827     0.00000001    -0.00000000  0.68D-13  0.27D-12  6  2     0.13     0.01
  15      1.36746022    -0.13538364   -59.64859827     0.00000000    -0.00000001  0.62D-14  0.34D-13  6  3     0.14     0.01
  16      1.36746029    -0.13538364   -59.64859827     0.00000000    -0.00000001  0.14D-15  0.52D-14  6  4     0.15     0.01
  17      1.36746031    -0.13538364   -59.64859827     0.00000000    -0.00000000  0.48D-16  0.65D-15  6  5     0.16     0.01
  18      1.36746031    -0.13538364   -59.64859827    -0.00000000     0.00000000  0.46D-17  0.85D-16  6  6     0.17     0.01
  19      1.36746031    -0.13538364   -59.64859827    -0.00000000     0.00000000  0.36D-18  0.12D-16  6  1     0.18     0.01
  20      1.36746031    -0.13538364   -59.64859827    -0.00000000     0.00000000  0.53D-19  0.22D-17  6  2     0.18     0.01
  21      1.36746031    -0.13538364   -59.64859827    -0.00000000     0.00000000  0.41D-19  0.43D-18  6  3     0.19     0.01
  22      1.36746031    -0.13538364   -59.64859827    -0.00000000     0.00000000  0.64D-20  0.71D-19  6  4     0.20     0.01
  23      1.36746031    -0.13538364   -59.64859827     0.00000000     0.00000000  0.27D-20  0.95D-20  6  5     0.21     0.01
  24      1.36746031    -0.13538364   -59.64859827     0.00000000     0.00000000  0.54D-21  0.15D-20  6  6     0.23     0.01
  25      1.36746031    -0.13538364   -59.64859827     0.00000000    -0.00000000  0.16D-21  0.21D-21  6  1     0.24     0.01
  26      1.36746031    -0.13538364   -59.64859827     0.00000000    -0.00000000  0.30D-22  0.58D-22  6  2     0.26     0.01
  27      1.36746031    -0.13538364   -59.64859827     0.00000000    -0.00000000  0.48D-23  0.10D-22  6  3     0.28     0.01
  28      1.36746031    -0.13538364   -59.64859827     0.00000000    -0.00000000  0.22D-24  0.14D-23  6  4     0.29     0.01
  29      1.36746031    -0.13538364   -59.64859827     0.00000000     0.00000000  0.30D-25  0.21D-24  6  5     0.30     0.01

 Norm of t1 vector:      0.06687677      S-energy:    -0.00000003      T1 diagnostic:  0.01671919
                                                                       D1 diagnostic:  0.02406994

 Singles amplitudes (print threshold =  0.000E+00):

         I         SYM. A    A   T(IA)

         1         1         1      0.00000000
         1         1         2     -0.00000000
         1         1         3     -0.02195141
         1         1         4     -0.00000000
         1         1         5      0.00000000
         1         1         6     -0.00075462
         1         1         7      0.00396635
         2         2         1      0.01126577
         2         2         2      0.00000000
         2         2         3      0.01351480
         2         2         4      0.01492694
         2         2         5      0.00000000
         2         2         6      0.00586378
         2         2         7     -0.00354921
         3         3         1      0.01126577
         3         3         2     -0.00000000
         3         3         3      0.01351480
         3         3         4      0.01492694
         3         3         5      0.00000000
         3         3         6      0.00586378
         3         3         7     -0.00354921
         4         5         1      0.01126577
         4         5         2      0.00000000
         4         5         3      0.01351480
         4         5         4      0.01492694
         4         5         5      0.00000000
         4         5         6      0.00586378
         4         5         7     -0.00354921

 Doubles amplitudes (print threshold =  0.000E+00):

         I         J         SYM. A    SYM. B    A         B      T(IJ, AB)

         1         1         1         1         1         1     -0.01938630
         1         1         1         1         1         2      0.00000000
         1         1         1         1         1         3      0.00000000
         1         1         1         1         1         4     -0.00763950
         1         1         1         1         1         5      0.00971974
         1         1         1         1         1         6     -0.00000000
         1         1         1         1         1         7      0.00000000
         1         1         1         1         2         1      0.00000000
         1         1         1         1         2         2     -0.01938630
         1         1         1         1         2         3      0.00000000
         1         1         1         1         2         4     -0.00971974
         1         1         1         1         2         5     -0.00763950
         1         1         1         1         2         6     -0.00000000
         1         1         1         1         2         7     -0.00000000
         1         1         1         1         3         1      0.00000000
         1         1         1         1         3         2      0.00000000
         1         1         1         1         3         3     -0.04663927
         1         1         1         1         3         4      0.00000000
         1         1         1         1         3         5     -0.00000000
         1         1         1         1         3         6     -0.01543895
         1         1         1         1         3         7     -0.00176461
         1         1         1         1         4         1     -0.00763950
         1         1         1         1         4         2     -0.00971974
         1         1         1         1         4         3      0.00000000
         1         1         1         1         4         4     -0.00852391
         1         1         1         1         4         5      0.00000000
         1         1         1         1         4         6      0.00000000
         1         1         1         1         4         7     -0.00000000
         1         1         1         1         5         1      0.00971974
         1         1         1         1         5         2     -0.00763950
         1         1         1         1         5         3     -0.00000000
         1         1         1         1         5         4      0.00000000
         1         1         1         1         5         5     -0.00852391
         1         1         1         1         5         6     -0.00000000
         1         1         1         1         5         7      0.00000000
         1         1         1         1         6         1     -0.00000000
         1         1         1         1         6         2     -0.00000000
         1         1         1         1         6         3     -0.01543895
         1         1         1         1         6         4      0.00000000
         1         1         1         1         6         5     -0.00000000
         1         1         1         1         6         6     -0.00607841
         1         1         1         1         6         7     -0.00154313
         1         1         1         1         7         1      0.00000000
         1         1         1         1         7         2     -0.00000000
         1         1         1         1         7         3     -0.00176461
         1         1         1         1         7         4     -0.00000000
         1         1         1         1         7         5      0.00000000
         1         1         1         1         7         6     -0.00154313
         1         1         1         1         7         7     -0.00214710
         1         1         2         2         1         1     -0.01791264
         1         1         2         2         1         2     -0.00000000
         1         1         2         2         1         3      0.00449158
         1         1         2         2         1         4     -0.01153117
         1         1         2         2         1         5      0.00000000
         1         1         2         2         1         6     -0.00343643
         1         1         2         2         1         7     -0.00045312
         1         1         2         2         2         1     -0.00000000
         1         1         2         2         2         2     -0.01575280
         1         1         2         2         2         3     -0.00000000
         1         1         2         2         2         4      0.00000000
         1         1         2         2         2         5     -0.01165341
         1         1         2         2         2         6     -0.00000000
         1         1         2         2         2         7     -0.00000000
         1         1         2         2         3         1      0.00449158
         1         1         2         2         3         2     -0.00000000
         1         1         2         2         3         3     -0.00760892
         1         1         2         2         3         4      0.00398044
         1         1         2         2         3         5     -0.00000000
         1         1         2         2         3         6      0.00615566
         1         1         2         2         3         7      0.00149637
         1         1         2         2         4         1     -0.01153117
         1         1         2         2         4         2      0.00000000
         1         1         2         2         4         3      0.00398044
         1         1         2         2         4         4     -0.00887702
         1         1         2         2         4         5      0.00000000
         1         1         2         2         4         6     -0.00363887
         1         1         2         2         4         7     -0.00065783
         1         1         2         2         5         1      0.00000000
         1         1         2         2         5         2     -0.01165341
         1         1         2         2         5         3     -0.00000000
         1         1         2         2         5         4      0.00000000
         1         1         2         2         5         5     -0.00950190
         1         1         2         2         5         6     -0.00000000
         1         1         2         2         5         7      0.00000000
         1         1         2         2         6         1     -0.00343643
         1         1         2         2         6         2     -0.00000000
         1         1         2         2         6         3      0.00615566
         1         1         2         2         6         4     -0.00363887
         1         1         2         2         6         5     -0.00000000
         1         1         2         2         6         6     -0.00607330
         1         1         2         2         6         7     -0.00135289
         1         1         2         2         7         1     -0.00045312
         1         1         2         2         7         2     -0.00000000
         1         1         2         2         7         3      0.00149637
         1         1         2         2         7         4     -0.00065783
         1         1         2         2         7         5      0.00000000
         1         1         2         2         7         6     -0.00135289
         1         1         2         2         7         7     -0.00072418
         1         1         3         3         1         1     -0.01791264
         1         1         3         3         1         2      0.00000000
         1         1         3         3         1         3      0.00449158
         1         1         3         3         1         4     -0.01153117
         1         1         3         3         1         5      0.00000000
         1         1         3         3         1         6     -0.00343643
         1         1         3         3         1         7     -0.00045312
         1         1         3         3         2         1      0.00000000
         1         1         3         3         2         2     -0.01575280
         1         1         3         3         2         3     -0.00000000
         1         1         3         3         2         4      0.00000000
         1         1         3         3         2         5     -0.01165341
         1         1         3         3         2         6     -0.00000000
         1         1         3         3         2         7     -0.00000000
         1         1         3         3         3         1      0.00449158
         1         1         3         3         3         2     -0.00000000
         1         1         3         3         3         3     -0.00760892
         1         1         3         3         3         4      0.00398044
         1         1         3         3         3         5     -0.00000000
         1         1         3         3         3         6      0.00615566
         1         1         3         3         3         7      0.00149637
         1         1         3         3         4         1     -0.01153117
         1         1         3         3         4         2      0.00000000
         1         1         3         3         4         3      0.00398044
         1         1         3         3         4         4     -0.00887702
         1         1         3         3         4         5     -0.00000000
         1         1         3         3         4         6     -0.00363887
         1         1         3         3         4         7     -0.00065783
         1         1         3         3         5         1      0.00000000
         1         1         3         3         5         2     -0.01165341
         1         1         3         3         5         3     -0.00000000
         1         1         3         3         5         4     -0.00000000
         1         1         3         3         5         5     -0.00950190
         1         1         3         3         5         6      0.00000000
         1         1         3         3         5         7      0.00000000
         1         1         3         3         6         1     -0.00343643
         1         1         3         3         6         2     -0.00000000
         1         1         3         3         6         3      0.00615566
         1         1         3         3         6         4     -0.00363887
         1         1         3         3         6         5      0.00000000
         1         1         3         3         6         6     -0.00607330
         1         1         3         3         6         7     -0.00135289
         1         1         3         3         7         1     -0.00045312
         1         1         3         3         7         2     -0.00000000
         1         1         3         3         7         3      0.00149637
         1         1         3         3         7         4     -0.00065783
         1         1         3         3         7         5      0.00000000
         1         1         3         3         7         6     -0.00135289
         1         1         3         3         7         7     -0.00072418
         1         1         4         4         1         1     -0.00933114
         1         1         4         4         1         2      0.00882935
         1         1         4         4         1         3      0.00000000
         1         1         4         4         1         4     -0.00678031
         1         1         4         4         1         5      0.00573757
         1         1         4         4         1         6     -0.00000000
         1         1         4         4         1         7      0.00477673
         1         1         4         4         1         8      0.00070821
         1         1         4         4         2         1      0.00882935
         1         1         4         4         2         2     -0.00765377
         1         1         4         4         2         3     -0.00000000
         1         1         4         4         2         4      0.00545474
         1         1         4         4         2         5     -0.00575488
         1         1         4         4         2         6      0.00000000
         1         1         4         4         2         7     -0.00374944
         1         1         4         4         2         8     -0.00067486
         1         1         4         4         3         1      0.00000000
         1         1         4         4         3         2     -0.00000000
         1         1         4         4         3         3     -0.00106593
         1         1         4         4         3         4      0.00000000
         1         1         4         4         3         5      0.00000000
         1         1         4         4         3         6     -0.00131431
         1         1         4         4         3         7     -0.00000000
         1         1         4         4         3         8      0.00000000
         1         1         4         4         4         1     -0.00678031
         1         1         4         4         4         2      0.00545474
         1         1         4         4         4         3      0.00000000
         1         1         4         4         4         4     -0.00506543
         1         1         4         4         4         5      0.00378860
         1         1         4         4         4         6      0.00000000
         1         1         4         4         4         7      0.00432512
         1         1         4         4         4         8      0.00064195
         1         1         4         4         5         1      0.00573757
         1         1         4         4         5         2     -0.00575488
         1         1         4         4         5         3      0.00000000
         1         1         4         4         5         4      0.00378860
         1         1         4         4         5         5     -0.00523335
         1         1         4         4         5         6     -0.00000000
         1         1         4         4         5         7     -0.00316945
         1         1         4         4         5         8     -0.00068915
         1         1         4         4         6         1     -0.00000000
         1         1         4         4         6         2      0.00000000
         1         1         4         4         6         3     -0.00131431
         1         1         4         4         6         4      0.00000000
         1         1         4         4         6         5     -0.00000000
         1         1         4         4         6         6     -0.00185313
         1         1         4         4         6         7      0.00000000
         1         1         4         4         6         8      0.00000000
         1         1         4         4         7         1      0.00477673
         1         1         4         4         7         2     -0.00374944
         1         1         4         4         7         3     -0.00000000
         1         1         4         4         7         4      0.00432512
         1         1         4         4         7         5     -0.00316945
         1         1         4         4         7         6      0.00000000
         1         1         4         4         7         7     -0.00492975
         1         1         4         4         7         8     -0.00075963
         1         1         4         4         8         1      0.00070821
         1         1         4         4         8         2     -0.00067486
         1         1         4         4         8         3      0.00000000
         1         1         4         4         8         4      0.00064195
         1         1         4         4         8         5     -0.00068915
         1         1         4         4         8         6      0.00000000
         1         1         4         4         8         7     -0.00075963
         1         1         4         4         8         8     -0.00026624
         1         1         5         5         1         1     -0.01791264
         1         1         5         5         1         2     -0.00000000
         1         1         5         5         1         3      0.00449158
         1         1         5         5         1         4     -0.01153117
         1         1         5         5         1         5      0.00000000
         1         1         5         5         1         6     -0.00343643
         1         1         5         5         1         7     -0.00045312
         1         1         5         5         2         1     -0.00000000
         1         1         5         5         2         2     -0.01575280
         1         1         5         5         2         3     -0.00000000
         1         1         5         5         2         4      0.00000000
         1         1         5         5         2         5     -0.01165341
         1         1         5         5         2         6     -0.00000000
         1         1         5         5         2         7     -0.00000000
         1         1         5         5         3         1      0.00449158
         1         1         5         5         3         2     -0.00000000
         1         1         5         5         3         3     -0.00760892
         1         1         5         5         3         4      0.00398044
         1         1         5         5         3         5      0.00000000
         1         1         5         5         3         6      0.00615566
         1         1         5         5         3         7      0.00149637
         1         1         5         5         4         1     -0.01153117
         1         1         5         5         4         2      0.00000000
         1         1         5         5         4         3      0.00398044
         1         1         5         5         4         4     -0.00887702
         1         1         5         5         4         5      0.00000000
         1         1         5         5         4         6     -0.00363887
         1         1         5         5         4         7     -0.00065783
         1         1         5         5         5         1      0.00000000
         1         1         5         5         5         2     -0.01165341
         1         1         5         5         5         3      0.00000000
         1         1         5         5         5         4      0.00000000
         1         1         5         5         5         5     -0.00950190
         1         1         5         5         5         6      0.00000000
         1         1         5         5         5         7      0.00000000
         1         1         5         5         6         1     -0.00343643
         1         1         5         5         6         2     -0.00000000
         1         1         5         5         6         3      0.00615566
         1         1         5         5         6         4     -0.00363887
         1         1         5         5         6         5      0.00000000
         1         1         5         5         6         6     -0.00607330
         1         1         5         5         6         7     -0.00135289
         1         1         5         5         7         1     -0.00045312
         1         1         5         5         7         2     -0.00000000
         1         1         5         5         7         3      0.00149637
         1         1         5         5         7         4     -0.00065783
         1         1         5         5         7         5      0.00000000
         1         1         5         5         7         6     -0.00135289
         1         1         5         5         7         7     -0.00072418
         1         1         6         6         1         1     -0.00933114
         1         1         6         6         1         2      0.00882935
         1         1         6         6         1         3     -0.00000000
         1         1         6         6         1         4     -0.00678031
         1         1         6         6         1         5      0.00573757
         1         1         6         6         1         6     -0.00000000
         1         1         6         6         1         7      0.00477673
         1         1         6         6         1         8      0.00070821
         1         1         6         6         2         1      0.00882935
         1         1         6         6         2         2     -0.00765377
         1         1         6         6         2         3     -0.00000000
         1         1         6         6         2         4      0.00545474
         1         1         6         6         2         5     -0.00575488
         1         1         6         6         2         6      0.00000000
         1         1         6         6         2         7     -0.00374944
         1         1         6         6         2         8     -0.00067486
         1         1         6         6         3         1     -0.00000000
         1         1         6         6         3         2     -0.00000000
         1         1         6         6         3         3     -0.00106593
         1         1         6         6         3         4      0.00000000
         1         1         6         6         3         5     -0.00000000
         1         1         6         6         3         6     -0.00131431
         1         1         6         6         3         7      0.00000000
         1         1         6         6         3         8      0.00000000
         1         1         6         6         4         1     -0.00678031
         1         1         6         6         4         2      0.00545474
         1         1         6         6         4         3      0.00000000
         1         1         6         6         4         4     -0.00506543
         1         1         6         6         4         5      0.00378860
         1         1         6         6         4         6     -0.00000000
         1         1         6         6         4         7      0.00432512
         1         1         6         6         4         8      0.00064195
         1         1         6         6         5         1      0.00573757
         1         1         6         6         5         2     -0.00575488
         1         1         6         6         5         3     -0.00000000
         1         1         6         6         5         4      0.00378860
         1         1         6         6         5         5     -0.00523335
         1         1         6         6         5         6      0.00000000
         1         1         6         6         5         7     -0.00316945
         1         1         6         6         5         8     -0.00068915
         1         1         6         6         6         1     -0.00000000
         1         1         6         6         6         2      0.00000000
         1         1         6         6         6         3     -0.00131431
         1         1         6         6         6         4     -0.00000000
         1         1         6         6         6         5      0.00000000
         1         1         6         6         6         6     -0.00185313
         1         1         6         6         6         7      0.00000000
         1         1         6         6         6         8     -0.00000000
         1         1         6         6         7         1      0.00477673
         1         1         6         6         7         2     -0.00374944
         1         1         6         6         7         3      0.00000000
         1         1         6         6         7         4      0.00432512
         1         1         6         6         7         5     -0.00316945
         1         1         6         6         7         6      0.00000000
         1         1         6         6         7         7     -0.00492975
         1         1         6         6         7         8     -0.00075963
         1         1         6         6         8         1      0.00070821
         1         1         6         6         8         2     -0.00067486
         1         1         6         6         8         3      0.00000000
         1         1         6         6         8         4      0.00064195
         1         1         6         6         8         5     -0.00068915
         1         1         6         6         8         6     -0.00000000
         1         1         6         6         8         7     -0.00075963
         1         1         6         6         8         8     -0.00026624
         1         1         7         7         1         1     -0.00933114
         1         1         7         7         1         2      0.00882935
         1         1         7         7         1         3      0.00000000
         1         1         7         7         1         4     -0.00678031
         1         1         7         7         1         5      0.00573757
         1         1         7         7         1         6     -0.00000000
         1         1         7         7         1         7      0.00477673
         1         1         7         7         1         8      0.00070821
         1         1         7         7         2         1      0.00882935
         1         1         7         7         2         2     -0.00765377
         1         1         7         7         2         3     -0.00000000
         1         1         7         7         2         4      0.00545474
         1         1         7         7         2         5     -0.00575488
         1         1         7         7         2         6      0.00000000
         1         1         7         7         2         7     -0.00374944
         1         1         7         7         2         8     -0.00067486
         1         1         7         7         3         1      0.00000000
         1         1         7         7         3         2     -0.00000000
         1         1         7         7         3         3     -0.00106593
         1         1         7         7         3         4      0.00000000
         1         1         7         7         3         5      0.00000000
         1         1         7         7         3         6     -0.00131431
         1         1         7         7         3         7     -0.00000000
         1         1         7         7         3         8      0.00000000
         1         1         7         7         4         1     -0.00678031
         1         1         7         7         4         2      0.00545474
         1         1         7         7         4         3      0.00000000
         1         1         7         7         4         4     -0.00506543
         1         1         7         7         4         5      0.00378860
         1         1         7         7         4         6     -0.00000000
         1         1         7         7         4         7      0.00432512
         1         1         7         7         4         8      0.00064195
         1         1         7         7         5         1      0.00573757
         1         1         7         7         5         2     -0.00575488
         1         1         7         7         5         3      0.00000000
         1         1         7         7         5         4      0.00378860
         1         1         7         7         5         5     -0.00523335
         1         1         7         7         5         6      0.00000000
         1         1         7         7         5         7     -0.00316945
         1         1         7         7         5         8     -0.00068915
         1         1         7         7         6         1     -0.00000000
         1         1         7         7         6         2      0.00000000
         1         1         7         7         6         3     -0.00131431
         1         1         7         7         6         4     -0.00000000
         1         1         7         7         6         5      0.00000000
         1         1         7         7         6         6     -0.00185313
         1         1         7         7         6         7      0.00000000
         1         1         7         7         6         8     -0.00000000
         1         1         7         7         7         1      0.00477673
         1         1         7         7         7         2     -0.00374944
         1         1         7         7         7         3     -0.00000000
         1         1         7         7         7         4      0.00432512
         1         1         7         7         7         5     -0.00316945
         1         1         7         7         7         6      0.00000000
         1         1         7         7         7         7     -0.00492975
         1         1         7         7         7         8     -0.00075963
         1         1         7         7         8         1      0.00070821
         1         1         7         7         8         2     -0.00067486
         1         1         7         7         8         3      0.00000000
         1         1         7         7         8         4      0.00064195
         1         1         7         7         8         5     -0.00068915
         1         1         7         7         8         6     -0.00000000
         1         1         7         7         8         7     -0.00075963
         1         1         7         7         8         8     -0.00026624
         1         1         8         8         1         1     -0.00235604
         1         1         8         8         1         2     -0.00000000
         1         1         8         8         1         3      0.00000000
         1         1         8         8         1         4     -0.00295534
         1         1         8         8         1         5      0.00000000
         1         1         8         8         1         6     -0.00000000
         1         1         8         8         1         7     -0.00208893
         1         1         8         8         1         8      0.00027623
         1         1         8         8         2         1     -0.00000000
         1         1         8         8         2         2     -0.00001445
         1         1         8         8         2         3     -0.00000000
         1         1         8         8         2         4      0.00000000
         1         1         8         8         2         5      0.00018590
         1         1         8         8         2         6      0.00004531
         1         1         8         8         2         7      0.00000000
         1         1         8         8         2         8      0.00000000
         1         1         8         8         3         1      0.00000000
         1         1         8         8         3         2     -0.00000000
         1         1         8         8         3         3     -0.00001445
         1         1         8         8         3         4     -0.00000000
         1         1         8         8         3         5      0.00004531
         1         1         8         8         3         6     -0.00018590
         1         1         8         8         3         7     -0.00000000
         1         1         8         8         3         8     -0.00000000
         1         1         8         8         4         1     -0.00295534
         1         1         8         8         4         2      0.00000000
         1         1         8         8         4         3     -0.00000000
         1         1         8         8         4         4     -0.00380376
         1         1         8         8         4         5     -0.00000000
         1         1         8         8         4         6     -0.00000000
         1         1         8         8         4         7     -0.00310721
         1         1         8         8         4         8      0.00031884
         1         1         8         8         5         1      0.00000000
         1         1         8         8         5         2      0.00018590
         1         1         8         8         5         3      0.00004531
         1         1         8         8         5         4     -0.00000000
         1         1         8         8         5         5     -0.00053048
         1         1         8         8         5         6      0.00000000
         1         1         8         8         5         7      0.00000000
         1         1         8         8         5         8      0.00000000
         1         1         8         8         6         1     -0.00000000
         1         1         8         8         6         2      0.00004531
         1         1         8         8         6         3     -0.00018590
         1         1         8         8         6         4     -0.00000000
         1         1         8         8         6         5      0.00000000
         1         1         8         8         6         6     -0.00053048
         1         1         8         8         6         7      0.00000000
         1         1         8         8         6         8      0.00000000
         1         1         8         8         7         1     -0.00208893
         1         1         8         8         7         2      0.00000000
         1         1         8         8         7         3     -0.00000000
         1         1         8         8         7         4     -0.00310721
         1         1         8         8         7         5      0.00000000
         1         1         8         8         7         6      0.00000000
         1         1         8         8         7         7     -0.00355325
         1         1         8         8         7         8      0.00034171
         1         1         8         8         8         1      0.00027623
         1         1         8         8         8         2      0.00000000
         1         1         8         8         8         3     -0.00000000
         1         1         8         8         8         4      0.00031884
         1         1         8         8         8         5      0.00000000
         1         1         8         8         8         6      0.00000000
         1         1         8         8         8         7      0.00034171
         1         1         8         8         8         8     -0.00016600
         2         2         1         1         1         1     -0.05752072
         2         2         1         1         1         2      0.02609301
         2         2         1         1         1         3      0.01107095
         2         2         1         1         1         4     -0.00917343
         2         2         1         1         1         5      0.01492968
         2         2         1         1         1         6      0.00500602
         2         2         1         1         1         7     -0.00114987
         2         2         1         1         2         1      0.02609301
         2         2         1         1         2         2     -0.08534442
         2         2         1         1         2         3     -0.01844882
         2         2         1         1         2         4     -0.01412926
         2         2         1         1         2         5     -0.01366625
         2         2         1         1         2         6     -0.00834212
         2         2         1         1         2         7      0.00191616
         2         2         1         1         3         1      0.01107095
         2         2         1         1         3         2     -0.01844882
         2         2         1         1         3         3     -0.03773055
         2         2         1         1         3         4      0.00228318
         2         2         1         1         3         5      0.00598976
         2         2         1         1         3         6     -0.01062294
         2         2         1         1         3         7      0.00134686
         2         2         1         1         4         1     -0.00917343
         2         2         1         1         4         2     -0.01412926
         2         2         1         1         4         3      0.00228318
         2         2         1         1         4         4     -0.00683991
         2         2         1         1         4         5     -0.00101642
         2         2         1         1         4         6     -0.00042188
         2         2         1         1         4         7     -0.00046646
         2         2         1         1         5         1      0.01492968
         2         2         1         1         5         2     -0.01366625
         2         2         1         1         5         3      0.00598976
         2         2         1         1         5         4     -0.00101642
         2         2         1         1         5         5     -0.00911897
         2         2         1         1         5         6     -0.00110678
         2         2         1         1         5         7     -0.00122372
         2         2         1         1         6         1      0.00500602
         2         2         1         1         6         2     -0.00834212
         2         2         1         1         6         3     -0.01062294
         2         2         1         1         6         4     -0.00042188
         2         2         1         1         6         5     -0.00110678
         2         2         1         1         6         6     -0.00473664
         2         2         1         1         6         7     -0.00030523
         2         2         1         1         7         1     -0.00114987
         2         2         1         1         7         2      0.00191616
         2         2         1         1         7         3      0.00134686
         2         2         1         1         7         4     -0.00046646
         2         2         1         1         7         5     -0.00122372
         2         2         1         1         7         6     -0.00030523
         2         2         1         1         7         7     -0.00099197
         2         2         2         2         1         1     -0.04148364
         2         2         2         2         1         2     -0.00000000
         2         2         2         2         1         3      0.00693136
         2         2         2         2         1         4     -0.01616133
         2         2         2         2         1         5     -0.00000000
         2         2         2         2         1         6     -0.00002818
         2         2         2         2         1         7      0.00117059
         2         2         2         2         2         1     -0.00000000
         2         2         2         2         2         2     -0.01198182
         2         2         2         2         2         3     -0.00000000
         2         2         2         2         2         4      0.00000000
         2         2         2         2         2         5     -0.00661555
         2         2         2         2         2         6      0.00000000
         2         2         2         2         2         7      0.00000000
         2         2         2         2         3         1      0.00693136
         2         2         2         2         3         2     -0.00000000
         2         2         2         2         3         3     -0.01250959
         2         2         2         2         3         4      0.00647732
         2         2         2         2         3         5     -0.00000000
         2         2         2         2         3         6      0.00287407
         2         2         2         2         3         7      0.00298311
         2         2         2         2         4         1     -0.01616133
         2         2         2         2         4         2      0.00000000
         2         2         2         2         4         3      0.00647732
         2         2         2         2         4         4     -0.01021128
         2         2         2         2         4         5      0.00000000
         2         2         2         2         4         6     -0.00278318
         2         2         2         2         4         7     -0.00048457
         2         2         2         2         5         1     -0.00000000
         2         2         2         2         5         2     -0.00661555
         2         2         2         2         5         3     -0.00000000
         2         2         2         2         5         4      0.00000000
         2         2         2         2         5         5     -0.00525791
         2         2         2         2         5         6     -0.00000000
         2         2         2         2         5         7      0.00000000
         2         2         2         2         6         1     -0.00002818
         2         2         2         2         6         2      0.00000000
         2         2         2         2         6         3      0.00287407
         2         2         2         2         6         4     -0.00278318
         2         2         2         2         6         5     -0.00000000
         2         2         2         2         6         6     -0.00246007
         2         2         2         2         6         7     -0.00100592
         2         2         2         2         7         1      0.00117059
         2         2         2         2         7         2      0.00000000
         2         2         2         2         7         3      0.00298311
         2         2         2         2         7         4     -0.00048457
         2         2         2         2         7         5      0.00000000
         2         2         2         2         7         6     -0.00100592
         2         2         2         2         7         7     -0.00176364
         2         2         3         3         1         1     -0.00314784
         2         2         3         3         1         2     -0.00058866
         2         2         3         3         1         3      0.00041769
[...]
         4         3         4         6         8         7     -0.00024633
         4         3         4         6         8         8     -0.00013775
         4         3         5         3         1         1     -0.02098589
         4         3         5         3         1         2     -0.00722936
         4         3         5         3         1         3      0.01139479
         4         3         5         3         1         4     -0.01028228
         4         3         5         3         1         5     -0.00682959
         4         3         5         3         1         6     -0.00710795
         4         3         5         3         1         7     -0.00159516
         4         3         5         3         2         1     -0.00722936
         4         3         5         3         2         2     -0.00811910
         4         3         5         3         2         3     -0.00370803
         4         3         5         3         2         4     -0.00080308
         4         3         5         3         2         5     -0.00452096
         4         3         5         3         2         6      0.00305486
         4         3         5         3         2         7      0.00060212
         4         3         5         3         3         1      0.01139479
         4         3         5         3         3         2     -0.00370803
         4         3         5         3         3         3     -0.00200964
         4         3         5         3         3         4      0.00361059
         4         3         5         3         3         5     -0.00030905
         4         3         5         3         3         6      0.00092863
         4         3         5         3         3         7      0.00061453
         4         3         5         3         4         1     -0.01028228
         4         3         5         3         4         2     -0.00080308
         4         3         5         3         4         3      0.00361059
         4         3         5         3         4         4     -0.00703900
         4         3         5         3         4         5     -0.00170864
         4         3         5         3         4         6     -0.00347613
         4         3         5         3         4         7     -0.00055187
         4         3         5         3         5         1     -0.00682959
         4         3         5         3         5         2     -0.00452096
         4         3         5         3         5         3     -0.00030905
         4         3         5         3         5         4     -0.00170864
         4         3         5         3         5         5     -0.00368054
         4         3         5         3         5         6      0.00170114
         4         3         5         3         5         7      0.00025890
         4         3         5         3         6         1     -0.00710795
         4         3         5         3         6         2      0.00305486
         4         3         5         3         6         3      0.00092863
         4         3         5         3         6         4     -0.00347613
         4         3         5         3         6         5      0.00170114
         4         3         5         3         6         6     -0.00064319
         4         3         5         3         6         7      0.00005803
         4         3         5         3         7         1     -0.00159516
         4         3         5         3         7         2      0.00060212
         4         3         5         3         7         3      0.00061453
         4         3         5         3         7         4     -0.00055187
         4         3         5         3         7         5      0.00025890
         4         3         5         3         7         6      0.00005803
         4         3         5         3         7         7     -0.00034345
         4         3         6         4         1         1     -0.02383377
         4         3         6         4         1         2      0.00169220
         4         3         6         4         1         3     -0.00016047
         4         3         6         4         1         4     -0.01182197
         4         3         6         4         1         5     -0.00309819
         4         3         6         4         1         6     -0.00093186
         4         3         6         4         1         7      0.00599334
         4         3         6         4         1         8      0.00087054
         4         3         6         4         2         1      0.00169220
         4         3         6         4         2         2     -0.00034499
         4         3         6         4         2         3     -0.00142753
         4         3         6         4         2         4      0.00364956
         4         3         6         4         2         5      0.00014764
         4         3         6         4         2         6     -0.00074034
         4         3         6         4         2         7     -0.00339044
         4         3         6         4         2         8     -0.00042538
         4         3         6         4         3         1     -0.00016047
         4         3         6         4         3         2     -0.00142753
         4         3         6         4         3         3     -0.00067626
         4         3         6         4         3         4     -0.00119019
         4         3         6         4         3         5     -0.00106700
         4         3         6         4         3         6     -0.00063667
         4         3         6         4         3         7      0.00091666
         4         3         6         4         3         8      0.00010871
         4         3         6         4         4         1     -0.01182197
         4         3         6         4         4         2      0.00364956
         4         3         6         4         4         3     -0.00119019
         4         3         6         4         4         4     -0.00646365
         4         3         6         4         4         5      0.00024166
         4         3         6         4         4         6     -0.00148750
         4         3         6         4         4         7      0.00372172
         4         3         6         4         4         8      0.00056366
         4         3         6         4         5         1     -0.00309819
         4         3         6         4         5         2      0.00014764
         4         3         6         4         5         3     -0.00106700
         4         3         6         4         5         4      0.00024166
         4         3         6         4         5         5     -0.00104157
         4         3         6         4         5         6     -0.00104105
         4         3         6         4         5         7     -0.00180384
         4         3         6         4         5         8     -0.00015955
         4         3         6         4         6         1     -0.00093186
         4         3         6         4         6         2     -0.00074034
         4         3         6         4         6         3     -0.00063667
         4         3         6         4         6         4     -0.00148750
         4         3         6         4         6         5     -0.00104105
         4         3         6         4         6         6     -0.00100659
         4         3         6         4         6         7      0.00136640
         4         3         6         4         6         8      0.00021637
         4         3         6         4         7         1      0.00599334
         4         3         6         4         7         2     -0.00339044
         4         3         6         4         7         3      0.00091666
         4         3         6         4         7         4      0.00372172
         4         3         6         4         7         5     -0.00180384
         4         3         6         4         7         6      0.00136640
         4         3         6         4         7         7     -0.00292180
         4         3         6         4         7         8     -0.00041883
         4         3         6         4         8         1      0.00087054
         4         3         6         4         8         2     -0.00042538
         4         3         6         4         8         3      0.00010871
         4         3         6         4         8         4      0.00056366
         4         3         6         4         8         5     -0.00015955
         4         3         6         4         8         6      0.00021637
         4         3         6         4         8         7     -0.00041883
         4         3         6         4         8         8     -0.00020265
         4         3         7         1         1         1     -0.00528057
         4         3         7         1         1         2      0.05980414
         4         3         7         1         1         3     -0.02640591
         4         3         7         1         1         4      0.01225169
         4         3         7         1         1         5      0.01446216
         4         3         7         1         1         6     -0.01242716
         4         3         7         1         1         7     -0.00216109
         4         3         7         1         2         1      0.00613883
         4         3         7         1         2         2     -0.03020334
         4         3         7         1         2         3     -0.00033386
         4         3         7         1         2         4     -0.00741692
         4         3         7         1         2         5     -0.00930079
         4         3         7         1         2         6      0.00292530
         4         3         7         1         2         7      0.00117520
         4         3         7         1         3         1     -0.01025687
         4         3         7         1         3         2     -0.00603841
         4         3         7         1         3         3     -0.00080749
         4         3         7         1         3         4     -0.00196665
         4         3         7         1         3         5      0.00113924
         4         3         7         1         3         6     -0.00061289
         4         3         7         1         3         7     -0.00045604
         4         3         7         1         4         1      0.00169057
         4         3         7         1         4         2      0.01367676
         4         3         7         1         4         3     -0.00187021
         4         3         7         1         4         4      0.00527117
         4         3         7         1         4         5      0.00408234
         4         3         7         1         4         6     -0.00367392
         4         3         7         1         4         7     -0.00151434
         4         3         7         1         5         1      0.00282685
         4         3         7         1         5         2     -0.01231610
         4         3         7         1         5         3     -0.00812548
         4         3         7         1         5         4     -0.00403259
         4         3         7         1         5         5     -0.00495809
         4         3         7         1         5         6     -0.00141991
         4         3         7         1         5         7      0.00068823
         4         3         7         1         6         1     -0.00835410
         4         3         7         1         6         2     -0.00465088
         4         3         7         1         6         3     -0.00071089
         4         3         7         1         6         4     -0.00210472
         4         3         7         1         6         5      0.00141465
         4         3         7         1         6         6     -0.00081667
         4         3         7         1         6         7     -0.00046961
         4         3         7         1         7         1     -0.00315772
         4         3         7         1         7         2     -0.00148866
         4         3         7         1         7         3     -0.00488428
         4         3         7         1         7         4     -0.00230847
         4         3         7         1         7         5     -0.00032868
         4         3         7         1         7         6     -0.00036715
         4         3         7         1         7         7      0.00079481
         4         3         7         1         8         1     -0.00039286
         4         3         7         1         8         2     -0.00039075
         4         3         7         1         8         3     -0.00057260
         4         3         7         1         8         4     -0.00051568
         4         3         7         1         8         5     -0.00023886
         4         3         7         1         8         6      0.00013266
         4         3         7         1         8         7      0.00034166
         4         3         8         2         1         1     -0.00271248
         4         3         8         2         1         2     -0.00408253
         4         3         8         2         1         3     -0.00373764
         4         3         8         2         1         4     -0.00226408
         4         3         8         2         1         5     -0.00177203
         4         3         8         2         1         6      0.00219117
         4         3         8         2         1         7      0.00036948
         4         3         8         2         2         1     -0.00013248
         4         3         8         2         2         2      0.00106898
         4         3         8         2         2         3     -0.00006081
         4         3         8         2         2         4     -0.00021777
         4         3         8         2         2         5      0.00052537
         4         3         8         2         2         6      0.00001710
         4         3         8         2         2         7      0.00011787
         4         3         8         2         3         1      0.00066372
         4         3         8         2         3         2     -0.00007274
         4         3         8         2         3         3      0.00092720
         4         3         8         2         3         4      0.00045392
         4         3         8         2         3         5     -0.00001296
         4         3         8         2         3         6     -0.00071060
         4         3         8         2         3         7     -0.00000019
         4         3         8         2         4         1     -0.00054942
         4         3         8         2         4         2     -0.00313160
         4         3         8         2         4         3     -0.00418450
         4         3         8         2         4         4     -0.00181125
         4         3         8         2         4         5     -0.00202185
         4         3         8         2         4         6      0.00304353
         4         3         8         2         4         7      0.00053327
         4         3         8         2         5         1     -0.00020058
         4         3         8         2         5         2     -0.00135765
         4         3         8         2         5         3     -0.00000698
         4         3         8         2         5         4      0.00010539
         4         3         8         2         5         5     -0.00090255
         4         3         8         2         5         6      0.00007833
         4         3         8         2         5         7     -0.00007295
         4         3         8         2         6         1      0.00066677
         4         3         8         2         6         2     -0.00035237
         4         3         8         2         6         3      0.00130809
         4         3         8         2         6         4      0.00071265
         4         3         8         2         6         5     -0.00014010
         4         3         8         2         6         6     -0.00136285
         4         3         8         2         6         7     -0.00014259
         4         3         8         2         7         1      0.00165065
         4         3         8         2         7         2     -0.00114199
         4         3         8         2         7         3     -0.00253832
         4         3         8         2         7         4      0.00034856
         4         3         8         2         7         5     -0.00121915
         4         3         8         2         7         6      0.00238778
         4         3         8         2         7         7      0.00045230
         4         3         8         2         8         1     -0.00006836
         4         3         8         2         8         2      0.00018297
         4         3         8         2         8         3      0.00030165
         4         3         8         2         8         4      0.00009897
         4         3         8         2         8         5      0.00016187
         4         3         8         2         8         6     -0.00029805
         4         3         8         2         8         7     -0.00015842


 RESULTS
 =======

  Reference energy                    -59.513214624826
  CCSD singlet pair energy             -0.100052395030
  CCSD triplet pair energy             -0.035331216982
  CCSD correlation energy              -0.135383640963

 !CCSD total energy                   -59.648598265789

 Timing summary (sec):

 STEP                 CPU(USER)    SYS     CPU(TOT)    WALL
 Transformation          0.01      0.01      0.02      2.16
 CCSD iterations         0.32      0.04      0.36      0.36

 Program statistics:

 Available memory in ccsd:                39999136
 Min. memory needed in ccsd:                 19877
 Max. memory used in ccsd:                   22129
 Max. memory used in cckext:                 50333 (29 integral passes)



 **********************************************************************************************************************************
 DATASETS  * FILE   NREC   LENGTH (MB)   RECORD NAMES
              1      20       32.93       500      700      610      900      950      970     1000      129      960     1100   
                                          VAR     GEOM    BASINP   SYMINP    ZMAT    AOBASIS   BASIS     P2S    ABASIS      S 
                                         1400     1410     1200     1210     1080     1600     1650     1300     1700     1380   
                                           T        V       H0       H01     AOSYM     SMH    MOLCAS    ERIS     OPER     JKOP   

              3       5       14.92       500      610      700     1000     2100   
                                          VAR    BASINP    GEOM     BASIS     RHF  

 PROGRAMS   *        TOTAL      CCSD       INT   RESTART
 CPU TIMES  *         1.22      0.40      0.73      0.01
 REAL TIME  *         6.20 SEC
 DISK USED  *        62.05 MB
 **********************************************************************************************************************************
 Molecular orbitals read from record     2100.3  Type=RHF/CANONICAL (state 1.1)
 Occupation numbers read from record     2100.3  Type=RHF/RHF (state 1.1)
 Orbital energies read from record       2100.3  Type=RHF/CANONICAL (state 1.1)
 Redundancy group numbers read from rec  2100.3  Type=RHF/RHF (state 1.1)

 CCSD/6-31G energy=    -59.648598265789

            CCSD
    -59.64859827
 **********************************************************************************************************************************
 Molpro calculation terminated
