
 Primary working directories    : /scr/yuriaoto/job.023415/molpro.C1KSOsbdvy
 Secondary working directories  : /scr/yuriaoto/job.023415/molpro.C1KSOsbdvy
 Wavefunction directory         : /scr/yuriaoto/job.023415/
 Main file repository           : /scr/yuriaoto/job.023415/molpro.C1KSOsbdvy/

 id        : yuriaoto

 Nodes             nprocs
 t-rex.ufabc.int.br    1

 Using customized tuning parameters: mindgm=8; mindgv=16; mindgc=1; mindgr=1; noblas=0; minvec=7
 default implementation of scratch files=df  


 Variables initialized (933), CPU time= 0.00 sec
 ***,
 memory,40,m
 gprint,orbital,basis,civector
 gthresh,thrprint=0,printci=0.0
 file,3,wfu.dat,old
 
 {cisd,CC_NORM_MAX=10000.0
 thresh,printci=0.0,ENERGY=1.0E-10,COEFF=1.0E-12
 print,ref=1
 wf,16,1,0;
 }
 
 Commands  initialized (760), CPU time= 0.02 sec, 617 directives.
 Default parameters read. Elapsed time= 0.05 sec

 Checking input...
 Passed
1


                                         ***  PROGRAM SYSTEM MOLPRO  ***
                                       Copyright, TTI GmbH Stuttgart, 2015
                                    Version 2019.2 linked Abr  7 2019 15:10:35


 **********************************************************************************************************************************
 LABEL *                                                                                 
  64 bit serial version                                                                  DATE: 02-Jun-20          TIME: 00:25:00  
 **********************************************************************************************************************************

 SHA1:             3a8a58c585c929645742fb5a1b7541a4ad1da699
 **********************************************************************************************************************************


 THRESHOLDS:

 ZERO    =  1.00D-12  ONEINT  =  1.00D-12  TWOINT  =  1.00D-11  PREFAC  =  1.00D-14  XXXXXX  =  1.00D-09  EORDER  =  1.00D-04
 ENERGY  =  0.00D+00  ETEST   =  0.00D+00  EDENS   =  0.00D+00  THRDEDEF=  1.00D-06  GRADIENT=  1.00D-02  STEP    =  1.00D-03
 ORBITAL =  1.00D-05  CIVEC   =  1.00D-05  COEFF   =  1.00D-04  PRINTCI =  0.00D+00  PUNCHCI =  9.90D+01  OPTGRAD =  3.00D-04
 OPTENERG=  1.00D-06  OPTSTEP =  3.00D-04  THRGRAD =  1.00D-10  COMPRESS=  1.00D-11  VARMIN  =  1.00D-07  VARMAX  =  1.00D-03
 THRDOUB =  0.00D+00  THRDIV  =  1.00D-05  THRRED  =  1.00D-07  THRPSP  =  1.00D+00  THRDC   =  1.00D-10  THRCS   =  1.00D-10
 THRNRM  =  1.00D-08  THREQ   =  0.00D+00  THRDE   =  1.00D+00  THRREF  =  1.00D-05  SPARFAC =  1.00D+00  THRDLP  =  1.00D-07
 THRDIA  =  1.00D-10  THRDLS  =  1.00D-07  THRGPS  =  0.00D+00  THRKEX  =  0.00D+00  THRDIS  =  2.00D-01  THRVAR  =  1.00D-10
 THRLOC  =  1.00D-06  THRGAP  =  1.00D-06  THRLOCT = -1.00D+00  THRGAPT = -1.00D+00  THRORB  =  1.00D-06  THRMLTP =  0.00D+00
 THRCPQCI=  1.00D-10  KEXTA   =  0.00D+00  THRCOARS=  0.00D+00  SYMTOL  =  1.00D-06  GRADTOL =  1.00D-06  THROVL  =  1.00D-08
 THRORTH =  1.00D-08  GRID    =  1.00D-06  GRIDMAX =  1.00D-03  DTMAX   =  0.00D+00  THROCCDE=  1.00D-01  THROCCDE=  1.00D-01
 THRPRINT=  0.00D+00


 Variable memory set to   40000000 words,  buffer space 



 Permanent file  3  wfu.dat  assigned.  Implementation=df    Size= 14.20 MB


 PROGRAM * RESTART 


 Reading variables from file 3

 _FNUC           =      0.00000000
 _BASIS          =    6-31G
 _NELEC          =     16.00000000
 _PROGRAM        =    RHF-SCF
 _DMZ            =      0.00000000
 _DMX_SCF        =      0.00000000
 _DMY_SCF        =      0.00000000
 _DMZ_SCF        =      0.00000000
 _HOMO           =      1.80000000
 _EHOMO          =     -0.90875643
 _LUMO           =      2.10000000
 _ELUMO          =      1.32776838
 _ENERGY         =    -22.84126352
 _ENERGY_METHOD  =    RHF
 _ENERGY_BASIS   =    6-31G
 _ENUC           =     16.08323531
 _EPS1(1:2)      =     -0.91968069     1.32776838
 _EPS2(1:2)      =     -0.91590815     1.37584569
 _EPS3(1:2)      =     -0.91590815     1.37584569
 _EPS4(1:2)      =     -0.91226826     1.42523808
 _EPS5(1:2)      =     -0.91590815     1.37584569
 _EPS6(1:2)      =     -0.91226826     1.42523808
 _EPS7(1:2)      =     -0.91226826     1.42523808
 _EPS8(1:2)      =     -0.90875643     1.47600363
 _IPROC_MPP      =      0.00000000
 _IPROC_MPPX     =      0.00000000
 _ORBITAL        =   2100.30000000
 _STATUS         =      1.00000000
 _DATE           =    23-Mar-20
 _LASTORB        =    RHF
 _OUTPUT         =    /scr/yuriaoto/job.022845/RHF.xml
 _PGROUP         =    D2h 
 _TIME           =    15:30:58
 R               =      1.50000000

 Geometry written to block  1 of record 700


 **********************************************************************************************************************************
 DATASETS  * FILE   NREC   LENGTH (MB)   RECORD NAMES
              3       5       14.89       500      610      700     1000     2100   
                                          VAR    BASINP    GEOM     BASIS     RHF  

 PROGRAMS   *        TOTAL   RESTART
 CPU TIMES  *         0.13      0.02
 REAL TIME  *         0.16 SEC
 DISK USED  *        26.98 MB
 **********************************************************************************************************************************


 Recomputing integrals since basis changed


 Using spherical harmonics

 Library entry HE     S 6-31G                selected for orbital group  1


 PROGRAM * SEWARD (Integral evaluation for generally contracted gaussian basis sets)     Author: Roland Lindh, 1990

 Geometry written to block  1 of record 700


 Point group  D2h 



 ATOMIC COORDINATES

 NR  ATOM    CHARGE       X              Y              Z

   1  HE1     2.00    2.834589187    2.834589187    2.834589187
   2  HE2     2.00   -2.834589187   -2.834589187    2.834589187
   3  HE3     2.00    2.834589187   -2.834589187    2.834589187
   4  HE4     2.00   -2.834589187    2.834589187    2.834589187
   5  HE5     2.00    2.834589187    2.834589187   -2.834589187
   6  HE6     2.00   -2.834589187   -2.834589187   -2.834589187
   7  HE7     2.00    2.834589187   -2.834589187   -2.834589187
   8  HE8     2.00   -2.834589187    2.834589187   -2.834589187


 BASIS DATA

   Nr Sym  Nuc  Type         Exponents   Contraction coefficients

    1.1 Ag    1  1s          38.421634     0.023766
              2  1s           5.778030     0.154679
              3  1s           1.241774     0.469630
              4  1s    
              5  1s    
              6  1s    
              7  1s    
              8  1s    
    2.1 Ag    1  1s           0.297964     1.000000
              2  1s    
              3  1s    
              4  1s    
              5  1s    
              6  1s    
              7  1s    
              8  1s    
    1.2 B3u   1  1s          38.421634     0.023766
              2 -1s           5.778030     0.154679
              3  1s           1.241774     0.469630
              4 -1s    
              5  1s    
              6 -1s    
              7  1s    
              8 -1s    
    2.2 B3u   1  1s           0.297964     1.000000
              2 -1s    
              3  1s    
              4 -1s    
              5  1s    
              6 -1s    
              7  1s    
              8 -1s    
    1.3 B2u   1  1s          38.421634     0.023766
              2 -1s           5.778030     0.154679
              3 -1s           1.241774     0.469630
              4  1s    
              5  1s    
              6 -1s    
              7 -1s    
              8  1s    
    2.3 B2u   1  1s           0.297964     1.000000
              2 -1s    
              3 -1s    
              4  1s    
              5  1s    
              6 -1s    
              7 -1s    
              8  1s    
    1.4 B1g   1  1s          38.421634     0.023766
              2  1s           5.778030     0.154679
              3 -1s           1.241774     0.469630
              4 -1s    
              5  1s    
              6  1s    
              7 -1s    
              8 -1s    
    2.4 B1g   1  1s           0.297964     1.000000
              2  1s    
              3 -1s    
              4 -1s    
              5  1s    
              6  1s    
              7 -1s    
              8 -1s    
    1.5 B1u   1  1s          38.421634     0.023766
              2  1s           5.778030     0.154679
              3  1s           1.241774     0.469630
              4  1s    
              5 -1s    
              6 -1s    
              7 -1s    
              8 -1s    
    2.5 B1u   1  1s           0.297964     1.000000
              2  1s    
              3  1s    
              4  1s    
              5 -1s    
              6 -1s    
              7 -1s    
              8 -1s    
    1.6 B2g   1  1s          38.421634     0.023766
              2 -1s           5.778030     0.154679
              3  1s           1.241774     0.469630
              4 -1s    
              5 -1s    
              6  1s    
              7 -1s    
              8  1s    
    2.6 B2g   1  1s           0.297964     1.000000
              2 -1s    
              3  1s    
              4 -1s    
              5 -1s    
              6  1s    
              7 -1s    
              8  1s    
    1.7 B3g   1  1s          38.421634     0.023766
              2 -1s           5.778030     0.154679
              3 -1s           1.241774     0.469630
              4  1s    
              5 -1s    
              6  1s    
              7  1s    
              8 -1s    
    2.7 B3g   1  1s           0.297964     1.000000
              2 -1s    
              3 -1s    
              4  1s    
              5 -1s    
              6  1s    
              7  1s    
              8 -1s    
    1.8 Au    1  1s          38.421634     0.023766
              2  1s           5.778030     0.154679
              3 -1s           1.241774     0.469630
              4 -1s    
              5 -1s    
              6 -1s    
              7  1s    
              8  1s    
    2.8 Au    1  1s           0.297964     1.000000
              2  1s    
              3 -1s    
              4 -1s    
              5 -1s    
              6 -1s    
              7  1s    
              8  1s    

 NUCLEAR CHARGE:                   16
 NUMBER OF PRIMITIVE AOS:          32
 NUMBER OF SYMMETRY AOS:           32
 NUMBER OF CONTRACTIONS:           16   (    2Ag  +    2B3u +    2B2u +    2B1g +    2B1u +    2B2g +    2B3g +    2Au  )
 NUMBER OF CORE ORBITALS:           0   (    0Ag  +    0B3u +    0B2u +    0B1g +    0B1u +    0B2g +    0B3g +    0Au  )
 NUMBER OF VALENCE ORBITALS:        8   (    1Ag  +    1B3u +    1B2u +    1B1g +    1B1u +    1B2g +    1B3g +    1Au  )


 NUCLEAR REPULSION ENERGY   16.08323531

 Eigenvalues of metric

         1 0.378E+00 0.165E+01
         2 0.370E+00 0.164E+01
         3 0.370E+00 0.164E+01
         4 0.362E+00 0.163E+01
         5 0.370E+00 0.164E+01
         6 0.362E+00 0.163E+01
         7 0.362E+00 0.163E+01
         8 0.354E+00 0.162E+01


 Contracted 2-electron integrals neglected if value below      1.0D-11
 AO integral compression algorithm  1   Integral accuracy      1.0D-11

     0.262 MB (compressed) written to integral file (100.0%)


 NUMBER OF SORTED TWO-ELECTRON INTEGRALS:       1476.     BUFFER LENGTH:  32768
 NUMBER OF SEGMENTS:   1  SEGMENT LENGTH:       1476      RECORD LENGTH: 524288

 Memory used in sort:       0.56 MW

 SORT1 READ        8192. AND WROTE        1476. INTEGRALS IN      1 RECORDS. CPU TIME:     0.00 SEC, REAL TIME:     0.00 SEC
 SORT2 READ        1476. AND WROTE        1476. INTEGRALS IN      1 RECORDS. CPU TIME:     0.01 SEC, REAL TIME:     0.02 SEC

 FILE SIZES:   FILE 1:    30.3 MBYTE,  FILE 4:     4.2 MBYTE,   TOTAL:     34.6 MBYTE

 OPERATOR DM      FOR CENTER  0  COORDINATES:    0.000000    0.000000    0.000000


 **********************************************************************************************************************************
 DATASETS  * FILE   NREC   LENGTH (MB)   RECORD NAMES
              1      19       30.08       500      700      610      900      950      970     1000      129      960     1100   
                                          VAR     GEOM    BASINP   SYMINP    ZMAT    AOBASIS   BASIS     P2S    ABASIS      S 
                                         1400     1410     1200     1210     1080     1600     1650     1300     1700   
                                           T        V       H0       H01     AOSYM     SMH    MOLCAS    ERIS     OPER   

              3       5       14.89       500      610      700     1000     2100   
                                          VAR    BASINP    GEOM     BASIS     RHF  

 PROGRAMS   *        TOTAL       INT   RESTART
 CPU TIMES  *         0.28      0.14      0.02
 REAL TIME  *         0.45 SEC
 DISK USED  *        49.79 MB
 **********************************************************************************************************************************


 PROGRAM * CISD (Closed-shell CI(SD))     Authors: C. Hampel, H.-J. Werner, 1991, M. Deegan, P.J. Knowles, 1992


 Input parameters for THRESH:

 ENERGY   =    1.00D-10
 COEFF    =    1.00D-12
 PRINTCI  =    0.000000
 THRPRINT =    0.000000

 Convergence thresholds:  THRVAR = 1.00D-24  THRDEN = 1.00D-10

 Number of closed-shell orbitals:   8 (   1   1   1   1   1   1   1   1 )
 Number of external orbitals:       8 (   1   1   1   1   1   1   1   1 )

 Molecular orbitals read from record     2100.3  Type=RHF/CANONICAL (state 1.1)

 Number of N-1 electron functions:               8
 Number of N-2 electron functions:              36
 Number of singly external CSFs:                 8
 Number of doubly external CSFs:               288
 Total number of CSFs:                         297

 Length of J-op  integral file:               0.00 MB
 Length of K-op  integral file:               0.03 MB

 Integral transformation finished. Total CPU:   0.00 sec, npass=  1  Memory used:   0.07 MW

 Reference energy:                    -22.84126352

 MP2 singlet pair energy:              -0.08960819
 MP2 triplet pair energy:              -0.00000000
 MP2 correlation energy:               -0.08960820
 MP2 total energy:                    -22.93087172

 SCS-MP2 correlation energy:           -0.10752983   (PS=  1.200000  PT=  0.333333)
 SCS-MP2 total energy:                -22.94879336

 ITER.      SQ.NORM     CORR.ENERGY   TOTAL ENERGY   ENERGY CHANGE        DEN1      VAR(S)    VAR(P)  DIIS     TIME  TIME/IT
   1      1.02916087    -0.11525417   -22.95651769    -0.02564598    -0.02030974  0.24D-04  0.99D-03  1  1     0.02     0.01
   2      1.03273789    -0.11620875   -22.95747227    -0.00095457    -0.00649382  0.11D-05  0.40D-08  2  2     0.02     0.01
   3      1.03286127    -0.11658782   -22.95785134    -0.00037907    -0.00021305  0.33D-10  0.94D-10  3  3     0.03     0.01
   4      1.03283891    -0.11658816   -22.95785168    -0.00000034     0.00003967  0.32D-11  0.12D-11  4  4     0.03     0.01
   5      1.03283986    -0.11658817   -22.95785170    -0.00000001    -0.00000168  0.17D-14  0.24D-13  5  5     0.04     0.01
   6      1.03284053    -0.11658817   -22.95785170    -0.00000000    -0.00000118  0.16D-14  0.79D-15  6  6     0.04     0.01
   7      1.03284062    -0.11658817   -22.95785170    -0.00000000    -0.00000016  0.50D-17  0.59D-16  6  1     0.04     0.01
   8      1.03284062    -0.11658817   -22.95785170    -0.00000000    -0.00000000  0.15D-19  0.45D-19  6  2     0.05     0.01
   9      1.03284062    -0.11658817   -22.95785170     0.00000000    -0.00000000  0.20D-21  0.84D-21  6  3     0.05     0.01
  10      1.03284062    -0.11658817   -22.95785170     0.00000000     0.00000000  0.13D-22  0.37D-23  6  4     0.05     0.01
  11      1.03284062    -0.11658817   -22.95785170     0.00000000     0.00000000  0.49D-24  0.17D-24  6  5     0.06     0.01


 ! DIPOLE MOMENTS:                      0.00000000     0.00000000     0.00000000



 Norm of t1 vector:      0.00772682      S-energy:    -0.00000674      T1 diagnostic:  0.00136592

 Singles amplitudes (print threshold =  0.000E+00):

         I         SYM. A    A   T(IA)

         1         1         1      0.00222159
         2         2         1      0.00202010
         3         3         1      0.00202010
         4         4         1      0.00182524
         5         5         1      0.00202010
         6         6         1      0.00182524
         7         7         1      0.00182524
         8         8         1      0.00163692

 Doubles amplitudes (print threshold =  0.000E+00):

         I         J         SYM. A    SYM. B    A         B      T(IJ, AB)

         1         1         1         1         1         1     -0.00827110
         1         1         2         2         1         1     -0.00799600
         1         1         3         3         1         1     -0.00799600
         1         1         4         4         1         1     -0.00773213
         1         1         5         5         1         1     -0.00799600
         1         1         6         6         1         1     -0.00773213
         1         1         7         7         1         1     -0.00773213
         1         1         8         8         1         1     -0.00747902
         2         2         1         1         1         1     -0.00836927
         2         2         2         2         1         1     -0.00808961
         2         2         3         3         1         1     -0.00808913
         2         2         4         4         1         1     -0.00782173
         2         2         5         5         1         1     -0.00808913
         2         2         6         6         1         1     -0.00782173
         2         2         7         7         1         1     -0.00782106
         2         2         8         8         1         1     -0.00756489
         3         3         1         1         1         1     -0.00836927
         3         3         2         2         1         1     -0.00808913
         3         3         3         3         1         1     -0.00808961
         3         3         4         4         1         1     -0.00782173
         3         3         5         5         1         1     -0.00808913
         3         3         6         6         1         1     -0.00782106
         3         3         7         7         1         1     -0.00782173
         3         3         8         8         1         1     -0.00756489
         4         4         1         1         1         1     -0.00846520
         4         4         2         2         1         1     -0.00818126
         4         4         3         3         1         1     -0.00818126
         4         4         4         4         1         1     -0.00790916
         4         4         5         5         1         1     -0.00818063
         4         4         6         6         1         1     -0.00790867
         4         4         7         7         1         1     -0.00790867
         4         4         8         8         1         1     -0.00764848
         5         5         1         1         1         1     -0.00836927
         5         5         2         2         1         1     -0.00808913
         5         5         3         3         1         1     -0.00808913
         5         5         4         4         1         1     -0.00782106
         5         5         5         5         1         1     -0.00808961
         5         5         6         6         1         1     -0.00782173
         5         5         7         7         1         1     -0.00782173
         5         5         8         8         1         1     -0.00756489
         6         6         1         1         1         1     -0.00846520
         6         6         2         2         1         1     -0.00818126
         6         6         3         3         1         1     -0.00818063
         6         6         4         4         1         1     -0.00790867
         6         6         5         5         1         1     -0.00818126
         6         6         6         6         1         1     -0.00790916
         6         6         7         7         1         1     -0.00790867
         6         6         8         8         1         1     -0.00764848
         7         7         1         1         1         1     -0.00846520
         7         7         2         2         1         1     -0.00818063
         7         7         3         3         1         1     -0.00818126
         7         7         4         4         1         1     -0.00790867
         7         7         5         5         1         1     -0.00818126
         7         7         6         6         1         1     -0.00790867
         7         7         7         7         1         1     -0.00790916
         7         7         8         8         1         1     -0.00764848
         8         8         1         1         1         1     -0.00855857
         8         8         2         2         1         1     -0.00827067
         8         8         3         3         1         1     -0.00827067
         8         8         4         4         1         1     -0.00799468
         8         8         5         5         1         1     -0.00827067
         8         8         6         6         1         1     -0.00799468
         8         8         7         7         1         1     -0.00799468
         8         8         8         8         1         1     -0.00773013
         2         1         1         2         1         1     -0.00817892
         2         1         2         1         1         1     -0.00817952
         2         1         3         4         1         1     -0.00790753
         2         1         4         3         1         1     -0.00790810
         2         1         5         6         1         1     -0.00790753
         2         1         6         5         1         1     -0.00790810
         2         1         7         8         1         1     -0.00764724
         2         1         8         7         1         1     -0.00764778
         4         3         1         2         1         1     -0.00827394
         4         3         2         1         1         1     -0.00827449
         4         3         3         4         1         1     -0.00799798
         4         3         4         3         1         1     -0.00799852
         4         3         5         6         1         1     -0.00799793
         4         3         6         5         1         1     -0.00799815
         4         3         7         8         1         1     -0.00773384
         4         3         8         7         1         1     -0.00773431
         6         5         1         2         1         1     -0.00827394
         6         5         2         1         1         1     -0.00827449
         6         5         3         4         1         1     -0.00799793
         6         5         4         3         1         1     -0.00799815
         6         5         5         6         1         1     -0.00799798
         6         5         6         5         1         1     -0.00799852
         6         5         7         8         1         1     -0.00773384
         6         5         8         7         1         1     -0.00773431
         8         7         1         2         1         1     -0.00836657
         8         7         2         1         1         1     -0.00836717
         8         7         3         4         1         1     -0.00808661
         8         7         4         3         1         1     -0.00808716
         8         7         5         6         1         1     -0.00808661
         8         7         6         5         1         1     -0.00808716
         8         7         7         8         1         1     -0.00781825
         8         7         8         7         1         1     -0.00781875
         3         1         1         3         1         1     -0.00817892
         3         1         2         4         1         1     -0.00790753
         3         1         3         1         1         1     -0.00817952
         3         1         4         2         1         1     -0.00790810
         3         1         5         7         1         1     -0.00790753
         3         1         6         8         1         1     -0.00764724
         3         1         7         5         1         1     -0.00790810
         3         1         8         6         1         1     -0.00764778
         4         2         1         3         1         1     -0.00827394
         4         2         2         4         1         1     -0.00799798
         4         2         3         1         1         1     -0.00827449
         4         2         4         2         1         1     -0.00799852
         4         2         5         7         1         1     -0.00799793
         4         2         6         8         1         1     -0.00773384
         4         2         7         5         1         1     -0.00799815
         4         2         8         6         1         1     -0.00773431
         7         5         1         3         1         1     -0.00827394
         7         5         2         4         1         1     -0.00799793
         7         5         3         1         1         1     -0.00827449
         7         5         4         2         1         1     -0.00799815
         7         5         5         7         1         1     -0.00799798
         7         5         6         8         1         1     -0.00773384
         7         5         7         5         1         1     -0.00799852
         7         5         8         6         1         1     -0.00773431
         8         6         1         3         1         1     -0.00836657
         8         6         2         4         1         1     -0.00808661
         8         6         3         1         1         1     -0.00836717
         8         6         4         2         1         1     -0.00808716
         8         6         5         7         1         1     -0.00808661
         8         6         6         8         1         1     -0.00781825
         8         6         7         5         1         1     -0.00808716
         8         6         8         6         1         1     -0.00781875
         3         2         1         4         1         1     -0.00808832
         3         2         2         3         1         1     -0.00808975
         3         2         3         2         1         1     -0.00808906
         3         2         4         1         1         1     -0.00808832
         3         2         5         8         1         1     -0.00782054
         3         2         6         7         1         1     -0.00782168
         3         2         7         6         1         1     -0.00782128
         3         2         8         5         1         1     -0.00782054
         4         1         1         4         1         1     -0.00808540
         4         1         2         3         1         1     -0.00808702
         4         1         3         2         1         1     -0.00808702
         4         1         4         1         1         1     -0.00808727
         4         1         5         8         1         1     -0.00781780
         4         1         6         7         1         1     -0.00781936
         4         1         7         6         1         1     -0.00781936
         4         1         8         5         1         1     -0.00781955
         7         6         1         4         1         1     -0.00818012
         7         6         2         3         1         1     -0.00818125
         7         6         3         2         1         1     -0.00818089
         7         6         4         1         1         1     -0.00818012
         7         6         5         8         1         1     -0.00790789
         7         6         6         7         1         1     -0.00790930
         7         6         7         6         1         1     -0.00790860
         7         6         8         5         1         1     -0.00790789
         8         5         1         4         1         1     -0.00817733
         8         5         2         3         1         1     -0.00817892
         8         5         3         2         1         1     -0.00817892
         8         5         4         1         1         1     -0.00817915
         8         5         5         8         1         1     -0.00790517
         8         5         6         7         1         1     -0.00790671
         8         5         7         6         1         1     -0.00790671
         8         5         8         5         1         1     -0.00790690
         5         1         1         5         1         1     -0.00817892
         5         1         2         6         1         1     -0.00790753
         5         1         3         7         1         1     -0.00790753
         5         1         4         8         1         1     -0.00764724
         5         1         5         1         1         1     -0.00817952
         5         1         6         2         1         1     -0.00790810
         5         1         7         3         1         1     -0.00790810
         5         1         8         4         1         1     -0.00764778
         6         2         1         5         1         1     -0.00827394
         6         2         2         6         1         1     -0.00799798
         6         2         3         7         1         1     -0.00799793
         6         2         4         8         1         1     -0.00773384
         6         2         5         1         1         1     -0.00827449
         6         2         6         2         1         1     -0.00799852
         6         2         7         3         1         1     -0.00799815
         6         2         8         4         1         1     -0.00773431
         7         3         1         5         1         1     -0.00827394
         7         3         2         6         1         1     -0.00799793
         7         3         3         7         1         1     -0.00799798
         7         3         4         8         1         1     -0.00773384
         7         3         5         1         1         1     -0.00827449
         7         3         6         2         1         1     -0.00799815
         7         3         7         3         1         1     -0.00799852
         7         3         8         4         1         1     -0.00773431
         8         4         1         5         1         1     -0.00836657
         8         4         2         6         1         1     -0.00808661
         8         4         3         7         1         1     -0.00808661
         8         4         4         8         1         1     -0.00781825
         8         4         5         1         1         1     -0.00836717
         8         4         6         2         1         1     -0.00808716
         8         4         7         3         1         1     -0.00808716
         8         4         8         4         1         1     -0.00781875
         5         2         1         6         1         1     -0.00808832
         5         2         2         5         1         1     -0.00808975
         5         2         3         8         1         1     -0.00782054
         5         2         4         7         1         1     -0.00782168
         5         2         5         2         1         1     -0.00808906
         5         2         6         1         1         1     -0.00808832
         5         2         7         4         1         1     -0.00782128
         5         2         8         3         1         1     -0.00782054
         6         1         1         6         1         1     -0.00808540
         6         1         2         5         1         1     -0.00808702
         6         1         3         8         1         1     -0.00781780
         6         1         4         7         1         1     -0.00781936
         6         1         5         2         1         1     -0.00808702
         6         1         6         1         1         1     -0.00808727
         6         1         7         4         1         1     -0.00781936
         6         1         8         3         1         1     -0.00781955
         7         4         1         6         1         1     -0.00818012
         7         4         2         5         1         1     -0.00818125
         7         4         3         8         1         1     -0.00790789
         7         4         4         7         1         1     -0.00790930
         7         4         5         2         1         1     -0.00818089
         7         4         6         1         1         1     -0.00818012
         7         4         7         4         1         1     -0.00790860
         7         4         8         3         1         1     -0.00790789
         8         3         1         6         1         1     -0.00817733
         8         3         2         5         1         1     -0.00817892
         8         3         3         8         1         1     -0.00790517
         8         3         4         7         1         1     -0.00790671
         8         3         5         2         1         1     -0.00817892
         8         3         6         1         1         1     -0.00817915
         8         3         7         4         1         1     -0.00790671
         8         3         8         3         1         1     -0.00790690
         5         3         1         7         1         1     -0.00808832
         5         3         2         8         1         1     -0.00782054
         5         3         3         5         1         1     -0.00808975
         5         3         4         6         1         1     -0.00782168
         5         3         5         3         1         1     -0.00808906
         5         3         6         4         1         1     -0.00782128
         5         3         7         1         1         1     -0.00808832
         5         3         8         2         1         1     -0.00782054
         6         4         1         7         1         1     -0.00818012
         6         4         2         8         1         1     -0.00790789
         6         4         3         5         1         1     -0.00818125
         6         4         4         6         1         1     -0.00790930
         6         4         5         3         1         1     -0.00818089
         6         4         6         4         1         1     -0.00790860
         6         4         7         1         1         1     -0.00818012
         6         4         8         2         1         1     -0.00790789
         7         1         1         7         1         1     -0.00808540
         7         1         2         8         1         1     -0.00781780
         7         1         3         5         1         1     -0.00808702
         7         1         4         6         1         1     -0.00781936
         7         1         5         3         1         1     -0.00808702
         7         1         6         4         1         1     -0.00781936
         7         1         7         1         1         1     -0.00808727
         7         1         8         2         1         1     -0.00781955
         8         2         1         7         1         1     -0.00817733
         8         2         2         8         1         1     -0.00790517
         8         2         3         5         1         1     -0.00817892
         8         2         4         6         1         1     -0.00790671
         8         2         5         3         1         1     -0.00817892
         8         2         6         4         1         1     -0.00790671
         8         2         7         1         1         1     -0.00817915
         8         2         8         2         1         1     -0.00790690
         5         4         1         8         1         1     -0.00799707
         5         4         2         7         1         1     -0.00799878
         5         4         3         6         1         1     -0.00799878
         5         4         4         5         1         1     -0.00799855
         5         4         5         4         1         1     -0.00799796
         5         4         6         3         1         1     -0.00799756
         5         4         7         2         1         1     -0.00799756
         5         4         8         1         1         1     -0.00799573
         6         3         1         8         1         1     -0.00799573
         6         3         2         7         1         1     -0.00799756
         6         3         3         6         1         1     -0.00799855
         6         3         4         5         1         1     -0.00799878
         6         3         5         4         1         1     -0.00799756
         6         3         6         3         1         1     -0.00799796
         6         3         7         2         1         1     -0.00799878
         6         3         8         1         1         1     -0.00799707
         7         2         1         8         1         1     -0.00799573
         7         2         2         7         1         1     -0.00799855
         7         2         3         6         1         1     -0.00799756
         7         2         4         5         1         1     -0.00799878
         7         2         5         4         1         1     -0.00799756
         7         2         6         3         1         1     -0.00799878
         7         2         7         2         1         1     -0.00799796
         7         2         8         1         1         1     -0.00799707
         8         1         1         8         1         1     -0.00799076
         8         1         2         7         1         1     -0.00799335
         8         1         3         6         1         1     -0.00799335
         8         1         4         5         1         1     -0.00799459
         8         1         5         4         1         1     -0.00799335
         8         1         6         3         1         1     -0.00799459
         8         1         7         2         1         1     -0.00799459
         8         1         8         1         1         1     -0.00799447


 RESULTS
 =======

  Reference energy                    -22.841263521837
  CISD singlet pair energy             -0.116581433288
  CISD triplet pair energy             -0.000000000888
  CISD correlation energy              -0.116588173600

 !CISD total energy                   -22.957851695437

 Timing summary (sec):

 STEP                 CPU(USER)    SYS     CPU(TOT)    WALL
 CCSD iterations         0.06      0.01      0.07      0.07

 Program statistics:

 Available memory in ccsd:                39998944
 Min. memory needed in ccsd:                  2743
 Max. memory used in ccsd:                    2743
 Max. memory used in cckext:                 37178 (11 integral passes)



 **********************************************************************************************************************************
 DATASETS  * FILE   NREC   LENGTH (MB)   RECORD NAMES
              1      20       30.11       500      700      610      900      950      970     1000      129      960     1100   
                                          VAR     GEOM    BASINP   SYMINP    ZMAT    AOBASIS   BASIS     P2S    ABASIS      S 
                                         1400     1410     1200     1210     1080     1600     1650     1300     1700     1380   
                                           T        V       H0       H01     AOSYM     SMH    MOLCAS    ERIS     OPER     JKOP   

              3       5       14.89       500      610      700     1000     2100   
                                          VAR    BASINP    GEOM     BASIS     RHF  

 PROGRAMS   *        TOTAL      CISD       INT   RESTART
 CPU TIMES  *         0.41      0.13      0.14      0.02
 REAL TIME  *         0.61 SEC
 DISK USED  *        49.79 MB
 **********************************************************************************************************************************
 Molecular orbitals read from record     2100.3  Type=RHF/CANONICAL (state 1.1)
 Occupation numbers read from record     2100.3  Type=RHF/RHF (state 1.1)
 Orbital energies read from record       2100.3  Type=RHF/CANONICAL (state 1.1)
 Redundancy group numbers read from rec  2100.3  Type=RHF/RHF (state 1.1)

 CISD/6-31G energy=    -22.957851695437

            CISD
    -22.95785170
 **********************************************************************************************************************************
 Molpro calculation terminated
