
 Primary working directories    : /scr/yuriaoto/job.022392/molpro.s26AXUqzmr
 Secondary working directories  : /scr/yuriaoto/job.022392/molpro.s26AXUqzmr
 Wavefunction directory         : /scr/yuriaoto/job.022392/
 Main file repository           : /scr/yuriaoto/job.022392/molpro.s26AXUqzmr/

 id        : yuriaoto

 Nodes             nprocs
 t-rex.ufabc.int.br    1

 Using customized tuning parameters: mindgm=8; mindgv=16; mindgc=1; mindgr=1; noblas=0; minvec=7
 default implementation of scratch files=df  


 Variables initialized (933), CPU time= 0.00 sec
 ***,
 memory,40,m
 gprint,orbital=15,basis
 gthresh,thrprint=0
 file,3,wfu.dat,new
 
 r = 5.0
 basis = sto-3g
 
 nosym
 geom={Li1;Li2,Li1,r}
 
 {rhf
 wf,6,1,0
 orbital,2100.3
 }
 
 {put,xml,orbitals.xml; nosort; novariables}
 
 Commands  initialized (760), CPU time= 0.00 sec, 617 directives.
 Default parameters read. Elapsed time= 0.04 sec

 Checking input...
 Passed
1


                                         ***  PROGRAM SYSTEM MOLPRO  ***
                                       Copyright, TTI GmbH Stuttgart, 2015
                                    Version 2019.2 linked Abr  7 2019 15:10:35


 **********************************************************************************************************************************
 LABEL *                                                                                 
  64 bit serial version                                                                  DATE: 21-Oct-19          TIME: 09:48:43  
 **********************************************************************************************************************************

 SHA1:             3a8a58c585c929645742fb5a1b7541a4ad1da699
 **********************************************************************************************************************************


 THRESHOLDS:

 ZERO    =  1.00D-12  ONEINT  =  1.00D-12  TWOINT  =  1.00D-11  PREFAC  =  1.00D-14  XXXXXX  =  1.00D-09  EORDER  =  1.00D-04
 ENERGY  =  0.00D+00  ETEST   =  0.00D+00  EDENS   =  0.00D+00  THRDEDEF=  1.00D-06  GRADIENT=  1.00D-02  STEP    =  1.00D-03
 ORBITAL =  1.00D-05  CIVEC   =  1.00D-05  COEFF   =  1.00D-04  PRINTCI =  5.00D-02  PUNCHCI =  9.90D+01  OPTGRAD =  3.00D-04
 OPTENERG=  1.00D-06  OPTSTEP =  3.00D-04  THRGRAD =  1.00D-10  COMPRESS=  1.00D-11  VARMIN  =  1.00D-07  VARMAX  =  1.00D-03
 THRDOUB =  0.00D+00  THRDIV  =  1.00D-05  THRRED  =  1.00D-07  THRPSP  =  1.00D+00  THRDC   =  1.00D-10  THRCS   =  1.00D-10
 THRNRM  =  1.00D-08  THREQ   =  0.00D+00  THRDE   =  1.00D+00  THRREF  =  1.00D-05  SPARFAC =  1.00D+00  THRDLP  =  1.00D-07
 THRDIA  =  1.00D-10  THRDLS  =  1.00D-07  THRGPS  =  0.00D+00  THRKEX  =  0.00D+00  THRDIS  =  2.00D-01  THRVAR  =  1.00D-10
 THRLOC  =  1.00D-06  THRGAP  =  1.00D-06  THRLOCT = -1.00D+00  THRGAPT = -1.00D+00  THRORB  =  1.00D-06  THRMLTP =  0.00D+00
 THRCPQCI=  1.00D-10  KEXTA   =  0.00D+00  THRCOARS=  0.00D+00  SYMTOL  =  1.00D-06  GRADTOL =  1.00D-06  THROVL  =  1.00D-08
 THRORTH =  1.00D-08  GRID    =  1.00D-06  GRIDMAX =  1.00D-03  DTMAX   =  0.00D+00  THROCCDE=  1.00D-01  THROCCDE=  1.00D-01
 THRPRINT=  0.00D+00


 Variable memory set to   40000000 words,  buffer space 



 Permanent file  3  wfu.dat  assigned.  Implementation=df  



 **********************************************************************************************************************************
 DATASETS  * FILE   NREC   LENGTH (MB)   RECORD NAMES
              3       1        0.03       500   
                                          VAR  

 PROGRAMS   *        TOTAL      FILE
 CPU TIMES  *         0.10      0.00
 REAL TIME  *         0.11 SEC
 DISK USED  *         0.09 MB
 **********************************************************************************************************************************
 SETTING R              =         5.00000000                                  
 SETTING BASIS          =    STO-3G
 ZSYMEL=NOSYM



 Recomputing integrals since basis changed


 Using spherical harmonics

 Library entry LI     S STO-3G               selected for orbital group  1
 Library entry LI     P STO-3G               selected for orbital group  1


 PROGRAM * SEWARD (Integral evaluation for generally contracted gaussian basis sets)     Author: Roland Lindh, 1990

 Geometry written to block  1 of record 700

 Orientation using atomic masses  
 Molecule type: Linear
 Rotational constants:      20.8009354     20.8009354      0.0000000 GHz  (calculated with average atomic masses)

 Point group  C1  



 ATOMIC COORDINATES

 NR  ATOM    CHARGE       X              Y              Z

   1  LI1     3.00    0.000000000    0.000000000   -2.500000000
   2  LI2     3.00    0.000000000    0.000000000    2.500000000

 Bond lengths in Bohr (Angstrom)

 1-2  5.000000000
     ( 2.645886055)


 BASIS DATA

   Nr Sym  Nuc  Type         Exponents   Contraction coefficients

    1.1 A     1  1s          16.119575     0.154329
                              2.936201     0.535328
                              0.794651     0.444635
    2.1 A     1  1s           0.636290    -0.099967
                              0.147860     0.399513
                              0.048089     0.700115
    3.1 A     1  2px          0.636290     0.155916
                              0.147860     0.607684
                              0.048089     0.391957
    4.1 A     1  2py          0.636290     0.155916
                              0.147860     0.607684
                              0.048089     0.391957
    5.1 A     1  2pz          0.636290     0.155916
                              0.147860     0.607684
                              0.048089     0.391957
    6.1 A     2  1s          16.119575     0.154329
                              2.936201     0.535328
                              0.794651     0.444635
    7.1 A     2  1s           0.636290    -0.099967
                              0.147860     0.399513
                              0.048089     0.700115
    8.1 A     2  2px          0.636290     0.155916
                              0.147860     0.607684
                              0.048089     0.391957
    9.1 A     2  2py          0.636290     0.155916
                              0.147860     0.607684
                              0.048089     0.391957
   10.1 A     2  2pz          0.636290     0.155916
                              0.147860     0.607684
                              0.048089     0.391957

 NUCLEAR CHARGE:                    6
 NUMBER OF PRIMITIVE AOS:          30
 NUMBER OF SYMMETRY AOS:           30
 NUMBER OF CONTRACTIONS:           10   (   10A   )
 NUMBER OF CORE ORBITALS:           2   (    2A   )
 NUMBER OF VALENCE ORBITALS:        8   (    8A   )


 NUCLEAR REPULSION ENERGY    1.80000000

 EXTRA SYMMETRY OF AOS IN SYMMETRY 1:   1 1 2 3 1 1 1 2 3 1

 Eigenvalues of metric

         1 0.155E+00 0.713E+00 0.713E+00 0.805E+00 0.846E+00 0.104E+01 0.123E+01 0.129E+01


 Contracted 2-electron integrals neglected if value below      1.0D-11
 AO integral compression algorithm  1   Integral accuracy      1.0D-11

     0.262 MB (compressed) written to integral file ( 65.1%)


 NUMBER OF SORTED TWO-ELECTRON INTEGRALS:       1540.     BUFFER LENGTH:  32768
 NUMBER OF SEGMENTS:   1  SEGMENT LENGTH:       1540      RECORD LENGTH: 524288

 Memory used in sort:       0.56 MW

 SORT1 READ        2389. AND WROTE         512. INTEGRALS IN      1 RECORDS. CPU TIME:     0.00 SEC, REAL TIME:     0.00 SEC
 SORT2 READ         512. AND WROTE        1540. INTEGRALS IN      1 RECORDS. CPU TIME:     0.00 SEC, REAL TIME:     0.01 SEC

 FILE SIZES:   FILE 1:    30.2 MBYTE,  FILE 4:     4.2 MBYTE,   TOTAL:     34.4 MBYTE

 OPERATOR DM      FOR CENTER  0  COORDINATES:    0.000000    0.000000    0.000000


 **********************************************************************************************************************************
 DATASETS  * FILE   NREC   LENGTH (MB)   RECORD NAMES
              1      19       29.95       500      610      700      900      950      970     1000      129      960     1100   
                                          VAR    BASINP    GEOM    SYMINP    ZMAT    AOBASIS   BASIS     P2S    ABASIS      S 
                                         1400     1410     1200     1210     1080     1600     1650     1300     1700   
                                           T        V       H0       H01     AOSYM     SMH    MOLCAS    ERIS     OPER   

              3       4       12.28       500      610      700     1000   
                                          VAR    BASINP    GEOM     BASIS   

 PROGRAMS   *        TOTAL       INT      FILE
 CPU TIMES  *         0.25      0.14      0.00
 REAL TIME  *         0.39 SEC
 DISK USED  *        46.94 MB
 **********************************************************************************************************************************


 PROGRAM * RHF-SCF (CLOSED SHELL)       Authors: W. Meyer, H.-J. Werner


 NUMBER OF ELECTRONS:       3+    3-    SPACE SYMMETRY=1    SPIN SYMMETRY: Singlet 
 CONVERGENCE THRESHOLDS:    1.00E-05 (Density)    1.00E-07 (Energy)
 MAX. NUMBER OF ITERATIONS:       60
 INTERPOLATION TYPE:            DIIS
 INTERPOLATION STEPS:              2 (START)      1 (STEP)
 LEVEL SHIFTS:                  0.00 (CLOSED)  0.00 (OPEN) 




   Atom=LI basis=MINAO             lmin=0  lmax=0

 Orbital guess generated from atomic densities. Full valence occupancy:    3

 Molecular orbital dump at record        2100.3

 Initial occupancy:   3

 ITERATION    DDIFF          GRAD             ENERGY        2-EL.EN.            DIPOLE MOMENTS         DIIS   ORB.
    1      0.000D+00      0.000D+00       -14.63822206     13.601098    0.00000    0.00000   -0.00000    0    start
    2      0.000D+00      0.264D-02       -14.63857650     13.620982    0.00000    0.00000    0.00000    1    diag
    3      0.461D-02      0.730D-03       -14.63863905     13.634363    0.00000    0.00000   -0.00000    2    diag
    4      0.263D-02      0.133D-03       -14.63864283     13.638984    0.00000   -0.00000    0.00000    3    diag
    5      0.832D-03      0.252D-05       -14.63864283     13.639061    0.00000   -0.00000    0.00000    4    diag
    6      0.145D-04      0.502D-07       -14.63864283     13.639062    0.00000   -0.00000    0.00000    5    diag
    7      0.273D-06      0.961D-09       -14.63864283     13.639062    0.00000   -0.00000    0.00000    0    orth

 Final occupancy:   3

 !RHF STATE  1.1 Energy               -14.638642833983
 Nuclear energy                         1.80000000
 One-electron energy                  -23.25817394
 Two-electron energy                    6.81953110
 Virial quotient                       -0.98778634
 !RHF STATE  1.1 Dipole moment          0.00000000    -0.00000000     0.00000000
 Dipole moment /Debye                   0.00000000    -0.00000000     0.00000000

 MOLECULAR ORBITALS
 ==================

   Orb  Occ    Energy       Coefficients

                            1 1s      1 1s      1 2px     1 2py     1 2pz     2 1s      2 1s      2 2px     2 2py     2 2pz  


   1.1   2    -2.3298     0.700876  0.020240  0.000000 -0.000000 -0.001433  0.700876  0.020240 -0.000000  0.000000  0.001433

   2.1   2    -2.3297     0.700425  0.037879  0.000000 -0.000000  0.008385 -0.700425 -0.037879  0.000000 -0.000000  0.008385

   3.1   2    -0.1501    -0.198883  0.565965 -0.000000  0.000000  0.101260 -0.198883  0.565965  0.000000 -0.000000 -0.101260

   4.1   0     0.0834    -0.179036  0.700445 -0.000000  0.000000 -0.308052  0.179036 -0.700445 -0.000000  0.000000 -0.308052

   5.1   0     0.1331    -0.000000 -0.000000  0.623222 -0.007706  0.000000  0.000000 -0.000000  0.623222 -0.007706 -0.000000

   6.1   0     0.1331     0.000000 -0.000000  0.007706  0.623222  0.000000 -0.000000 -0.000000  0.007706  0.623222 -0.000000

   7.1   0     0.1583     0.032976 -0.291071 -0.000000 -0.000000  0.643089  0.032976 -0.291071 -0.000000 -0.000000 -0.643089

   8.1   0     0.2418     0.000000 -0.000000 -0.243922  0.801174  0.000000  0.000000 -0.000000  0.243922 -0.801174 -0.000000

   9.1   0     0.2418    -0.000000  0.000000  0.801174  0.243922 -0.000000 -0.000000  0.000000 -0.801174 -0.243922  0.000000

  10.1   0     0.4743    -0.136792  1.268472  0.000000 -0.000000  1.221702  0.136792 -1.268472  0.000000 -0.000000  1.221702


 HOMO      3.1    -0.150071 =      -4.0836eV
 LUMO      4.1     0.083362 =       2.2684eV
 LUMO-HOMO         0.233433 =       6.3520eV


 **********************************************************************************************************************************
 DATASETS  * FILE   NREC   LENGTH (MB)   RECORD NAMES
              1      19       29.95       500      610      700      900      950      970     1000      129      960     1100   
                                          VAR    BASINP    GEOM    SYMINP    ZMAT    AOBASIS   BASIS     P2S    ABASIS      S 
                                         1400     1410     1200     1210     1080     1600     1650     1300     1700   
                                           T        V       H0       H01     AOSYM     SMH    MOLCAS    ERIS     OPER   

              3       5       14.77       500      610      700     1000     2100   
                                          VAR    BASINP    GEOM     BASIS     RHF  

 PROGRAMS   *        TOTAL   RHF-SCF       INT      FILE
 CPU TIMES  *         0.37      0.12      0.14      0.00
 REAL TIME  *         0.54 SEC
 DISK USED  *        46.94 MB
 **********************************************************************************************************************************

 Dump information in style XML to orbitals.xml                                                                    

 Variables will not be exported.
 Molecular orbitals read from record     2100.3  Type=RHF/CANONICAL (state 1.1)
 Occupation numbers read from record     2100.3  Type=RHF/RHF (state 1.1)
 Orbital energies read from record       2100.3  Type=RHF/CANONICAL (state 1.1)
 Redundancy group numbers read from rec  2100.3  Type=RHF/RHF (state 1.1)

 **********************************************************************************************************************************

 RHF/STO-3G energy=    -14.638642833983

         RHF-SCF
    -14.63864283
 **********************************************************************************************************************************
 Molpro calculation terminated
