
 Primary working directories    : /scr/yuriaoto/job.023256/molpro.JwE68gCS9K
 Secondary working directories  : /scr/yuriaoto/job.023256/molpro.JwE68gCS9K
 Wavefunction directory         : /scr/yuriaoto/job.023256/
 Main file repository           : /scr/yuriaoto/job.023256/molpro.JwE68gCS9K/

 id        : yuriaoto

 Nodes             nprocs
 t-rex.ufabc.int.br    1

 Using customized tuning parameters: mindgm=8; mindgv=16; mindgc=1; mindgr=1; noblas=0; minvec=7
 default implementation of scratch files=df  


 Variables initialized (933), CPU time= 0.00 sec
 ***,
 memory,40,m
 gprint,orbital,basis,civector
 gthresh,thrprint=0,printci=0.0
 file,3,wfu.dat,old
 
 {ccsd,CC_NORM_MAX=10.0
 thresh,printci=0.0,ENERGY=1.0E-10,COEFF=1.0E-12
 print,ref=1
 core,0
 wf,6,1,0;
 }
 
 Commands  initialized (760), CPU time= 0.01 sec, 617 directives.
 Default parameters read. Elapsed time= 0.05 sec

 Checking input...
 Passed
1


                                         ***  PROGRAM SYSTEM MOLPRO  ***
                                       Copyright, TTI GmbH Stuttgart, 2015
                                    Version 2019.2 linked Abr  7 2019 15:10:35


 **********************************************************************************************************************************
 LABEL *                                                                                 
  64 bit serial version                                                                  DATE: 30-May-20          TIME: 20:29:10  
 **********************************************************************************************************************************

 SHA1:             3a8a58c585c929645742fb5a1b7541a4ad1da699
 **********************************************************************************************************************************


 THRESHOLDS:

 ZERO    =  1.00D-12  ONEINT  =  1.00D-12  TWOINT  =  1.00D-11  PREFAC  =  1.00D-14  XXXXXX  =  1.00D-09  EORDER  =  1.00D-04
 ENERGY  =  0.00D+00  ETEST   =  0.00D+00  EDENS   =  0.00D+00  THRDEDEF=  1.00D-06  GRADIENT=  1.00D-02  STEP    =  1.00D-03
 ORBITAL =  1.00D-05  CIVEC   =  1.00D-05  COEFF   =  1.00D-04  PRINTCI =  0.00D+00  PUNCHCI =  9.90D+01  OPTGRAD =  3.00D-04
 OPTENERG=  1.00D-06  OPTSTEP =  3.00D-04  THRGRAD =  1.00D-10  COMPRESS=  1.00D-11  VARMIN  =  1.00D-07  VARMAX  =  1.00D-03
 THRDOUB =  0.00D+00  THRDIV  =  1.00D-05  THRRED  =  1.00D-07  THRPSP  =  1.00D+00  THRDC   =  1.00D-10  THRCS   =  1.00D-10
 THRNRM  =  1.00D-08  THREQ   =  0.00D+00  THRDE   =  1.00D+00  THRREF  =  1.00D-05  SPARFAC =  1.00D+00  THRDLP  =  1.00D-07
 THRDIA  =  1.00D-10  THRDLS  =  1.00D-07  THRGPS  =  0.00D+00  THRKEX  =  0.00D+00  THRDIS  =  2.00D-01  THRVAR  =  1.00D-10
 THRLOC  =  1.00D-06  THRGAP  =  1.00D-06  THRLOCT = -1.00D+00  THRGAPT = -1.00D+00  THRORB  =  1.00D-06  THRMLTP =  0.00D+00
 THRCPQCI=  1.00D-10  KEXTA   =  0.00D+00  THRCOARS=  0.00D+00  SYMTOL  =  1.00D-06  GRADTOL =  1.00D-06  THROVL  =  1.00D-08
 THRORTH =  1.00D-08  GRID    =  1.00D-06  GRIDMAX =  1.00D-03  DTMAX   =  0.00D+00  THROCCDE=  1.00D-01  THROCCDE=  1.00D-01
 THRPRINT=  0.00D+00


 Variable memory set to   40000000 words,  buffer space 



 Permanent file  3  wfu.dat  assigned.  Implementation=df    Size= 14.09 MB


 PROGRAM * RESTART 


 Reading variables from file 3

 _FNUC           =      0.00000000
 _BASIS          =    6-31G
 _NELEC          =      6.00000000
 _PROGRAM        =    RHF-SCF
 _DMX            =      0.00000000
 _DMY            =      0.00000000
 _DMZ            =     -0.00000000
 _DMX_SCF        =      0.00000000
 _DMY_SCF        =      0.00000000
 _DMZ_SCF        =     -0.00000000
 _HOMO           =      3.10000000
 _EHOMO          =     -0.17851751
 _LUMO           =      4.10000000
 _ELUMO          =      0.01777237
 _ENERGY         =    -14.86544674
 _ENERGY_METHOD  =    RHF
 _ENERGY_BASIS   =    6-31G
 _ENUC           =      1.80000000
 _EPS1(1:18)     =     -2.44083704    -2.44048610    -0.17851751     0.01777237     0.04562579     0.04562579
                        0.06347954     0.09250721     0.09250721     0.13971383     0.19419332     0.20818018
                        0.20818018     0.22544142     0.26575139     0.27049342     0.27049342     0.54809004
 _IPROC_MPP      =      0.00000000
 _IPROC_MPPX     =      0.00000000
 _ORBITAL        =   2100.30000000
 _STATUS         =      1.00000000
 _DATE           =    21-Oct-19
 _LASTORB        =    RHF
 _OUTPUT         =    /scr/yuriaoto/job.022406/RHF.xml
 _PGROUP         =    C1  
 _TIME           =    10:34:13
 R               =      5.00000000

 Geometry written to block  1 of record 700


 **********************************************************************************************************************************
 DATASETS  * FILE   NREC   LENGTH (MB)   RECORD NAMES
              3       5       14.77       500      610      700     1000     2100   
                                          VAR    BASINP    GEOM     BASIS     RHF  

 PROGRAMS   *        TOTAL   RESTART
 CPU TIMES  *         0.14      0.02
 REAL TIME  *         0.17 SEC
 DISK USED  *        26.84 MB
 **********************************************************************************************************************************


 Recomputing integrals since basis changed


 Using spherical harmonics

 Library entry LI     S 6-31G                selected for orbital group  1
 Library entry LI     P 6-31G                selected for orbital group  1


 PROGRAM * SEWARD (Integral evaluation for generally contracted gaussian basis sets)     Author: Roland Lindh, 1990

 Geometry written to block  1 of record 700

 Orientation using atomic masses  
 Molecule type: Linear
 Rotational constants:      20.8009354     20.8009354      0.0000000 GHz  (calculated with average atomic masses)

 Point group  C1  



 ATOMIC COORDINATES

 NR  ATOM    CHARGE       X              Y              Z

   1  LI1     3.00    0.000000000    0.000000000   -2.500000000
   2  LI2     3.00    0.000000000    0.000000000    2.500000000

 Bond lengths in Bohr (Angstrom)

 1-2  5.000000000
     ( 2.645886055)


 BASIS DATA

   Nr Sym  Nuc  Type         Exponents   Contraction coefficients

    1.1 A     1  1s         642.418910     0.002143
                             96.798515     0.016209
                             22.091121     0.077316
                              6.201070     0.245786
                              1.935118     0.470189
                              0.636736     0.345471
    2.1 A     1  1s           2.324918    -0.035092
                              0.632430    -0.191233
                              0.079053     1.083988
    3.1 A     1  1s           0.035962     1.000000
    4.1 A     1  2px          2.324918     0.008942
                              0.632430     0.141009
                              0.079053     0.945364
    5.1 A     1  2py          2.324918     0.008942
                              0.632430     0.141009
                              0.079053     0.945364
    6.1 A     1  2pz          2.324918     0.008942
                              0.632430     0.141009
                              0.079053     0.945364
    7.1 A     1  2px          0.035962     1.000000
    8.1 A     1  2py          0.035962     1.000000
    9.1 A     1  2pz          0.035962     1.000000
   10.1 A     2  1s         642.418910     0.002143
                             96.798515     0.016209
                             22.091121     0.077316
                              6.201070     0.245786
                              1.935118     0.470189
                              0.636736     0.345471
   11.1 A     2  1s           2.324918    -0.035092
                              0.632430    -0.191233
                              0.079053     1.083988
   12.1 A     2  1s           0.035962     1.000000
   13.1 A     2  2px          2.324918     0.008942
                              0.632430     0.141009
                              0.079053     0.945364
   14.1 A     2  2py          2.324918     0.008942
                              0.632430     0.141009
                              0.079053     0.945364
   15.1 A     2  2pz          2.324918     0.008942
                              0.632430     0.141009
                              0.079053     0.945364
   16.1 A     2  2px          0.035962     1.000000
   17.1 A     2  2py          0.035962     1.000000
   18.1 A     2  2pz          0.035962     1.000000

 NUCLEAR CHARGE:                    6
 NUMBER OF PRIMITIVE AOS:          44
 NUMBER OF SYMMETRY AOS:           44
 NUMBER OF CONTRACTIONS:           18   (   18A   )
 NUMBER OF CORE ORBITALS:           2   (    2A   )
 NUMBER OF VALENCE ORBITALS:        8   (    8A   )


 NUCLEAR REPULSION ENERGY    1.80000000

 EXTRA SYMMETRY OF AOS IN SYMMETRY 1:   1 1 1 2 3 1 2 3 1 1   1 1 2 3 1 2 3 1

 Eigenvalues of metric

         1 0.422E-02 0.103E+00 0.108E+00 0.108E+00 0.112E+00 0.166E+00 0.180E+00 0.252E+00


 Contracted 2-electron integrals neglected if value below      1.0D-11
 AO integral compression algorithm  1   Integral accuracy      1.0D-11

     0.262 MB (compressed) written to integral file ( 49.2%)


 NUMBER OF SORTED TWO-ELECTRON INTEGRALS:      14706.     BUFFER LENGTH:  32768
 NUMBER OF SEGMENTS:   1  SEGMENT LENGTH:      14706      RECORD LENGTH: 524288

 Memory used in sort:       0.57 MW

 SORT1 READ       26487. AND WROTE        4350. INTEGRALS IN      1 RECORDS. CPU TIME:     0.00 SEC, REAL TIME:     0.01 SEC
 SORT2 READ        4350. AND WROTE       14706. INTEGRALS IN      1 RECORDS. CPU TIME:     0.01 SEC, REAL TIME:     0.02 SEC

 FILE SIZES:   FILE 1:    30.2 MBYTE,  FILE 4:     4.2 MBYTE,   TOTAL:     34.4 MBYTE

 OPERATOR DM      FOR CENTER  0  COORDINATES:    0.000000    0.000000    0.000000


 **********************************************************************************************************************************
 DATASETS  * FILE   NREC   LENGTH (MB)   RECORD NAMES
              1      19       29.99       500      700      610      900      950      970     1000      129      960     1100   
                                          VAR     GEOM    BASINP   SYMINP    ZMAT    AOBASIS   BASIS     P2S    ABASIS      S 
                                         1400     1410     1200     1210     1080     1600     1650     1300     1700   
                                           T        V       H0       H01     AOSYM     SMH    MOLCAS    ERIS     OPER   

              3       5       14.77       500      610      700     1000     2100   
                                          VAR    BASINP    GEOM     BASIS     RHF  

 PROGRAMS   *        TOTAL       INT   RESTART
 CPU TIMES  *         0.29      0.15      0.02
 REAL TIME  *         0.45 SEC
 DISK USED  *        49.44 MB
 **********************************************************************************************************************************


 PROGRAM * CCSD (Closed-shell coupled cluster)     Authors: C. Hampel, H.-J. Werner, 1991, M. Deegan, P.J. Knowles, 1992


 Input parameters for THRESH:

 ENERGY   =    1.00D-10
 COEFF    =    1.00D-12
 PRINTCI  =    0.000000
 THRPRINT =    0.000000

 Convergence thresholds:  THRVAR = 1.00D-24  THRDEN = 1.00D-10

 Number of closed-shell orbitals:   3 (   3 )
 Number of external orbitals:      15 (  15 )

 Molecular orbitals read from record     2100.3  Type=RHF/CANONICAL (state 1.1)

 Number of N-1 electron functions:               3
 Number of N-2 electron functions:               6
 Number of singly external CSFs:                45
 Number of doubly external CSFs:              1035
 Total number of CSFs:                        1081

 Length of J-op  integral file:               0.00 MB
 Length of K-op  integral file:               0.05 MB
 Length of 3-ext integral record:             0.00 MB

 Integral transformation finished. Total CPU:   0.00 sec, npass=  1  Memory used:   0.09 MW

 Reference energy:                    -14.86544674

 MP2 singlet pair energy:              -0.01624341
 MP2 triplet pair energy:              -0.00012344
 MP2 correlation energy:               -0.01636685
 MP2 total energy:                    -14.88181359

 SCS-MP2 correlation energy:           -0.01956890   (PS=  1.200000  PT=  0.333333)
 SCS-MP2 total energy:                -14.88501564

 ITER.      SQ.NORM     CORR.ENERGY   TOTAL ENERGY   ENERGY CHANGE        DEN1      VAR(S)    VAR(P)  DIIS     TIME  TIME/IT
   1      1.04776224    -0.02441243   -14.88985917    -0.00804558    -0.00431625  0.12D-03  0.27D-02  1  1     0.02     0.01
   2      1.08445098    -0.02777945   -14.89322619    -0.00336702    -0.00572624  0.21D-04  0.25D-03  2  2     0.03     0.01
   3      1.09506658    -0.02780106   -14.89324780    -0.00002161    -0.00106383  0.24D-05  0.46D-04  3  3     0.03     0.01
   4      1.09955122    -0.02783528   -14.89328202    -0.00003423    -0.00030576  0.64D-06  0.37D-05  4  4     0.03     0.01
   5      1.10067007    -0.02788632   -14.89333306    -0.00005104    -0.00008979  0.11D-07  0.54D-06  5  5     0.04     0.01
   6      1.10070074    -0.02786583   -14.89331257     0.00002049     0.00000692  0.12D-07  0.12D-06  6  6     0.04     0.01
   7      1.10077622    -0.02786635   -14.89331309    -0.00000052    -0.00000449  0.76D-08  0.20D-07  6  1     0.04     0.00
   8      1.10078865    -0.02786627   -14.89331300     0.00000009    -0.00000028  0.22D-08  0.39D-08  6  2     0.05     0.00
   9      1.10079563    -0.02786608   -14.89331282     0.00000019    -0.00000091  0.32D-09  0.55D-09  6  3     0.05     0.00
  10      1.10078827    -0.02786620   -14.89331294    -0.00000012     0.00000073  0.39D-10  0.66D-10  6  4     0.05     0.00
  11      1.10078498    -0.02786626   -14.89331300    -0.00000006     0.00000034  0.99D-11  0.66D-11  6  5     0.06     0.00
  12      1.10078378    -0.02786628   -14.89331302    -0.00000002     0.00000011  0.33D-11  0.15D-11  6  6     0.06     0.00
  13      1.10078340    -0.02786629   -14.89331303    -0.00000000     0.00000001  0.64D-12  0.36D-12  6  2     0.07     0.00
  14      1.10078329    -0.02786629   -14.89331302     0.00000000    -0.00000000  0.10D-12  0.14D-12  6  1     0.07     0.00
  15      1.10078322    -0.02786629   -14.89331303    -0.00000000     0.00000000  0.11D-13  0.53D-13  6  3     0.07     0.00
  16      1.10078317    -0.02786629   -14.89331303    -0.00000000     0.00000000  0.10D-14  0.10D-13  6  4     0.08     0.00
  17      1.10078315    -0.02786629   -14.89331303    -0.00000000     0.00000000  0.75D-15  0.18D-14  6  5     0.08     0.00
  18      1.10078315    -0.02786629   -14.89331303    -0.00000000     0.00000000  0.19D-15  0.46D-15  6  6     0.08     0.00
  19      1.10078315    -0.02786629   -14.89331303     0.00000000    -0.00000000  0.38D-16  0.10D-15  6  2     0.09     0.00
  20      1.10078316    -0.02786629   -14.89331303     0.00000000    -0.00000000  0.69D-17  0.15D-16  6  1     0.09     0.00
  21      1.10078316    -0.02786629   -14.89331303    -0.00000000     0.00000000  0.21D-17  0.23D-17  6  3     0.09     0.00
  22      1.10078316    -0.02786629   -14.89331303    -0.00000000     0.00000000  0.82D-18  0.53D-18  6  4     0.09     0.00
  23      1.10078316    -0.02786629   -14.89331303    -0.00000000     0.00000000  0.28D-18  0.13D-18  6  6     0.10     0.00
  24      1.10078316    -0.02786629   -14.89331303    -0.00000000     0.00000000  0.11D-19  0.12D-19  6  5     0.10     0.00
  25      1.10078316    -0.02786629   -14.89331303     0.00000000    -0.00000000  0.15D-20  0.35D-20  6  2     0.10     0.00
  26      1.10078316    -0.02786629   -14.89331303     0.00000000    -0.00000000  0.37D-22  0.39D-21  6  1     0.10     0.00
  27      1.10078316    -0.02786629   -14.89331303     0.00000000    -0.00000000  0.73D-23  0.11D-21  6  3     0.11     0.00
  28      1.10078316    -0.02786629   -14.89331303     0.00000000    -0.00000000  0.51D-24  0.24D-22  6  4     0.11     0.00
  29      1.10078316    -0.02786629   -14.89331303     0.00000000    -0.00000000  0.13D-24  0.48D-23  6  6     0.11     0.00
  30      1.10078316    -0.02786629   -14.89331303     0.00000000    -0.00000000  0.25D-24  0.61D-24  6  5     0.12     0.00

 Norm of t1 vector:      0.03698429      S-energy:     0.00000000      T1 diagnostic:  0.01067644
                                                                       D1 diagnostic:  0.02614479

 Singles amplitudes (print threshold =  0.000E+00):

         I         SYM. A    A   T(IA)

         1         1         1      0.00000000
         1         1         2     -0.00000000
         1         1         3      0.00000000
         1         1         4      0.00009835
         1         1         5      0.00000000
         1         1         6     -0.00000000
         1         1         7      0.00000000
         1         1         8     -0.00015620
         1         1         9      0.00000000
         1         1        10     -0.00000000
         1         1        11      0.00012038
         1         1        12      0.00000000
         1         1        13      0.00000000
         1         1        14      0.00000000
         1         1        15      0.00000000
         2         1         1     -0.00033727
         2         1         2     -0.00000000
         2         1         3     -0.00000000
         2         1         4      0.00000000
         2         1         5      0.00000000
         2         1         6      0.00000000
         2         1         7      0.00035241
         2         1         8     -0.00000000
         2         1         9     -0.00000000
         2         1        10      0.00000000
         2         1        11     -0.00000000
         2         1        12      0.00001094
         2         1        13     -0.00000000
         2         1        14      0.00000000
         2         1        15      0.00028909
         3         1         1     -0.00000000
         3         1         2     -0.00000000
         3         1         3      0.00000000
         3         1         4     -0.01710728
         3         1         5      0.00000000
         3         1         6      0.00000000
         3         1         7      0.00000000
         3         1         8      0.00887175
         3         1         9      0.00000000
         3         1        10      0.00000000
         3         1        11      0.01766867
         3         1        12     -0.00000000
         3         1        13     -0.00000000
         3         1        14     -0.00000000
         3         1        15      0.00000000

 Doubles amplitudes (print threshold =  0.000E+00):

         I         J         SYM. A    SYM. B    A         B      T(IJ, AB)

         1         1         1         1         1         1     -0.00043816
         1         1         1         1         1         2     -0.00000000
         1         1         1         1         1         3     -0.00000000
         1         1         1         1         1         4      0.00000000
         1         1         1         1         1         5      0.00000000
         1         1         1         1         1         6      0.00000000
         1         1         1         1         1         7      0.00075645
         1         1         1         1         1         8      0.00000000
         1         1         1         1         1         9     -0.00000000
         1         1         1         1         1        10     -0.00000000
         1         1         1         1         1        11     -0.00000000
         1         1         1         1         1        12     -0.00021805
         1         1         1         1         1        13      0.00000000
         1         1         1         1         1        14      0.00000000
         1         1         1         1         1        15     -0.00001189
         1         1         1         1         2         1     -0.00000000
         1         1         1         1         2         2      0.00015910
         1         1         1         1         2         3     -0.00000000
         1         1         1         1         2         4     -0.00000000
         1         1         1         1         2         5      0.00000000
         1         1         1         1         2         6      0.00000000
         1         1         1         1         2         7     -0.00000000
         1         1         1         1         2         8     -0.00000000
         1         1         1         1         2         9     -0.00008183
         1         1         1         1         2        10     -0.00014132
         1         1         1         1         2        11     -0.00000000
         1         1         1         1         2        12     -0.00000000
         1         1         1         1         2        13      0.00000000
         1         1         1         1         2        14      0.00000000
         1         1         1         1         2        15      0.00000000
         1         1         1         1         3         1     -0.00000000
         1         1         1         1         3         2     -0.00000000
         1         1         1         1         3         3      0.00015910
         1         1         1         1         3         4     -0.00000000
         1         1         1         1         3         5     -0.00000000
         1         1         1         1         3         6      0.00000000
         1         1         1         1         3         7      0.00000000
         1         1         1         1         3         8     -0.00000000
         1         1         1         1         3         9      0.00014132
         1         1         1         1         3        10     -0.00008183
         1         1         1         1         3        11     -0.00000000
         1         1         1         1         3        12     -0.00000000
         1         1         1         1         3        13      0.00000000
         1         1         1         1         3        14     -0.00000000
         1         1         1         1         3        15      0.00000000
         1         1         1         1         4         1      0.00000000
         1         1         1         1         4         2     -0.00000000
         1         1         1         1         4         3     -0.00000000
         1         1         1         1         4         4     -0.00003036
         1         1         1         1         4         5      0.00000000
         1         1         1         1         4         6      0.00000000
         1         1         1         1         4         7     -0.00000000
         1         1         1         1         4         8      0.00023982
         1         1         1         1         4         9      0.00000000
         1         1         1         1         4        10     -0.00000000
         1         1         1         1         4        11      0.00010157
         1         1         1         1         4        12     -0.00000000
         1         1         1         1         4        13      0.00000000
         1         1         1         1         4        14      0.00000000
         1         1         1         1         4        15     -0.00000000
         1         1         1         1         5         1      0.00000000
         1         1         1         1         5         2      0.00000000
         1         1         1         1         5         3     -0.00000000
         1         1         1         1         5         4      0.00000000
         1         1         1         1         5         5     -0.00001356
         1         1         1         1         5         6     -0.00000000
         1         1         1         1         5         7     -0.00000000
         1         1         1         1         5         8     -0.00000000
         1         1         1         1         5         9     -0.00000000
         1         1         1         1         5        10     -0.00000000
         1         1         1         1         5        11      0.00000000
         1         1         1         1         5        12      0.00000000
         1         1         1         1         5        13      0.00000488
         1         1         1         1         5        14     -0.00014102
         1         1         1         1         5        15      0.00000000
         1         1         1         1         6         1      0.00000000
         1         1         1         1         6         2      0.00000000
         1         1         1         1         6         3      0.00000000
         1         1         1         1         6         4      0.00000000
         1         1         1         1         6         5     -0.00000000
         1         1         1         1         6         6     -0.00001356
         1         1         1         1         6         7     -0.00000000
         1         1         1         1         6         8     -0.00000000
         1         1         1         1         6         9      0.00000000
         1         1         1         1         6        10     -0.00000000
         1         1         1         1         6        11      0.00000000
         1         1         1         1         6        12      0.00000000
         1         1         1         1         6        13     -0.00014102
         1         1         1         1         6        14     -0.00000488
         1         1         1         1         6        15      0.00000000
         1         1         1         1         7         1      0.00075645
         1         1         1         1         7         2     -0.00000000
         1         1         1         1         7         3      0.00000000
         1         1         1         1         7         4     -0.00000000
         1         1         1         1         7         5     -0.00000000
         1         1         1         1         7         6     -0.00000000
         1         1         1         1         7         7     -0.00113148
         1         1         1         1         7         8      0.00000000
         1         1         1         1         7         9     -0.00000000
         1         1         1         1         7        10     -0.00000000
         1         1         1         1         7        11      0.00000000
         1         1         1         1         7        12      0.00032582
         1         1         1         1         7        13     -0.00000000
         1         1         1         1         7        14     -0.00000000
         1         1         1         1         7        15      0.00003595
         1         1         1         1         8         1      0.00000000
         1         1         1         1         8         2     -0.00000000
         1         1         1         1         8         3     -0.00000000
         1         1         1         1         8         4      0.00023982
         1         1         1         1         8         5     -0.00000000
         1         1         1         1         8         6     -0.00000000
         1         1         1         1         8         7      0.00000000
         1         1         1         1         8         8     -0.00073169
         1         1         1         1         8         9     -0.00000000
         1         1         1         1         8        10     -0.00000000
         1         1         1         1         8        11     -0.00042146
         1         1         1         1         8        12     -0.00000000
         1         1         1         1         8        13     -0.00000000
         1         1         1         1         8        14      0.00000000
         1         1         1         1         8        15     -0.00000000
         1         1         1         1         9         1     -0.00000000
         1         1         1         1         9         2     -0.00008183
         1         1         1         1         9         3      0.00014132
         1         1         1         1         9         4      0.00000000
         1         1         1         1         9         5     -0.00000000
         1         1         1         1         9         6      0.00000000
         1         1         1         1         9         7     -0.00000000
         1         1         1         1         9         8     -0.00000000
         1         1         1         1         9         9     -0.00096923
         1         1         1         1         9        10      0.00000000
         1         1         1         1         9        11      0.00000000
         1         1         1         1         9        12     -0.00000000
         1         1         1         1         9        13      0.00000000
         1         1         1         1         9        14     -0.00000000
         1         1         1         1         9        15     -0.00000000
         1         1         1         1        10         1     -0.00000000
         1         1         1         1        10         2     -0.00014132
         1         1         1         1        10         3     -0.00008183
         1         1         1         1        10         4     -0.00000000
         1         1         1         1        10         5     -0.00000000
         1         1         1         1        10         6     -0.00000000
         1         1         1         1        10         7     -0.00000000
         1         1         1         1        10         8     -0.00000000
         1         1         1         1        10         9      0.00000000
         1         1         1         1        10        10     -0.00096923
         1         1         1         1        10        11     -0.00000000
         1         1         1         1        10        12     -0.00000000
         1         1         1         1        10        13     -0.00000000
         1         1         1         1        10        14     -0.00000000
         1         1         1         1        10        15      0.00000000
         1         1         1         1        11         1     -0.00000000
         1         1         1         1        11         2     -0.00000000
         1         1         1         1        11         3     -0.00000000
         1         1         1         1        11         4      0.00010157
         1         1         1         1        11         5      0.00000000
         1         1         1         1        11         6      0.00000000
         1         1         1         1        11         7      0.00000000
         1         1         1         1        11         8     -0.00042146
         1         1         1         1        11         9      0.00000000
         1         1         1         1        11        10     -0.00000000
         1         1         1         1        11        11     -0.00069226
         1         1         1         1        11        12     -0.00000000
         1         1         1         1        11        13     -0.00000000
         1         1         1         1        11        14      0.00000000
         1         1         1         1        11        15      0.00000000
         1         1         1         1        12         1     -0.00021805
         1         1         1         1        12         2     -0.00000000
         1         1         1         1        12         3     -0.00000000
         1         1         1         1        12         4     -0.00000000
         1         1         1         1        12         5      0.00000000
         1         1         1         1        12         6      0.00000000
         1         1         1         1        12         7      0.00032582
         1         1         1         1        12         8     -0.00000000
         1         1         1         1        12         9     -0.00000000
         1         1         1         1        12        10     -0.00000000
         1         1         1         1        12        11     -0.00000000
         1         1         1         1        12        12     -0.00079651
         1         1         1         1        12        13      0.00000000
         1         1         1         1        12        14      0.00000000
         1         1         1         1        12        15     -0.00080810
         1         1         1         1        13         1      0.00000000
         1         1         1         1        13         2      0.00000000
         1         1         1         1        13         3      0.00000000
         1         1         1         1        13         4      0.00000000
         1         1         1         1        13         5      0.00000488
         1         1         1         1        13         6     -0.00014102
         1         1         1         1        13         7     -0.00000000
         1         1         1         1        13         8     -0.00000000
         1         1         1         1        13         9      0.00000000
         1         1         1         1        13        10     -0.00000000
         1         1         1         1        13        11     -0.00000000
         1         1         1         1        13        12      0.00000000
         1         1         1         1        13        13     -0.00133781
         1         1         1         1        13        14     -0.00000000
         1         1         1         1        13        15     -0.00000000
         1         1         1         1        14         1      0.00000000
         1         1         1         1        14         2      0.00000000
         1         1         1         1        14         3     -0.00000000
         1         1         1         1        14         4      0.00000000
         1         1         1         1        14         5     -0.00014102
         1         1         1         1        14         6     -0.00000488
         1         1         1         1        14         7     -0.00000000
         1         1         1         1        14         8      0.00000000
         1         1         1         1        14         9     -0.00000000
         1         1         1         1        14        10     -0.00000000
         1         1         1         1        14        11      0.00000000
         1         1         1         1        14        12      0.00000000
         1         1         1         1        14        13      0.00000000
         1         1         1         1        14        14     -0.00133781
         1         1         1         1        14        15      0.00000000
         1         1         1         1        15         1     -0.00001189
         1         1         1         1        15         2      0.00000000
         1         1         1         1        15         3      0.00000000
         1         1         1         1        15         4     -0.00000000
         1         1         1         1        15         5      0.00000000
         1         1         1         1        15         6      0.00000000
         1         1         1         1        15         7      0.00003595
         1         1         1         1        15         8     -0.00000000
         1         1         1         1        15         9     -0.00000000
         1         1         1         1        15        10      0.00000000
         1         1         1         1        15        11      0.00000000
         1         1         1         1        15        12     -0.00080810
         1         1         1         1        15        13     -0.00000000
         1         1         1         1        15        14      0.00000000
         1         1         1         1        15        15     -0.00131442
         2         1         1         1         1         1      0.00000000
         2         1         1         1         1         2     -0.00000000
         2         1         1         1         1         3     -0.00000000
         2         1         1         1         1         4      0.00008867
         2         1         1         1         1         5      0.00000000
         2         1         1         1         1         6     -0.00000000
         2         1         1         1         1         7     -0.00000000
         2         1         1         1         1         8      0.00000244
         2         1         1         1         1         9     -0.00000000
         2         1         1         1         1        10     -0.00000000
         2         1         1         1         1        11      0.00050131
         2         1         1         1         1        12      0.00000000
         2         1         1         1         1        13      0.00000000
         2         1         1         1         1        14      0.00000000
         2         1         1         1         1        15     -0.00000000
         2         1         1         1         2         1     -0.00000000
         2         1         1         1         2         2      0.00000000
         2         1         1         1         2         3      0.00000000
         2         1         1         1         2         4     -0.00000000
         2         1         1         1         2         5     -0.00002405
         2         1         1         1         2         6     -0.00001912
         2         1         1         1         2         7      0.00000000
         2         1         1         1         2         8      0.00000000
         2         1         1         1         2         9     -0.00000000
         2         1         1         1         2        10      0.00000000
         2         1         1         1         2        11     -0.00000000
         2         1         1         1         2        12     -0.00000000
         2         1         1         1         2        13     -0.00017580
         2         1         1         1         2        14     -0.00023752
         2         1         1         1         2        15     -0.00000000
         2         1         1         1         3         1     -0.00000000
         2         1         1         1         3         2     -0.00000000
         2         1         1         1         3         3      0.00000000
         2         1         1         1         3         4     -0.00000000
         2         1         1         1         3         5      0.00001912
         2         1         1         1         3         6     -0.00002405
         2         1         1         1         3         7      0.00000000
         2         1         1         1         3         8      0.00000000
         2         1         1         1         3         9     -0.00000000
         2         1         1         1         3        10     -0.00000000
         2         1         1         1         3        11      0.00000000
         2         1         1         1         3        12     -0.00000000
         2         1         1         1         3        13     -0.00023752
         2         1         1         1         3        14      0.00017580
         2         1         1         1         3        15     -0.00000000
         2         1         1         1         4         1      0.00009746
         2         1         1         1         4         2     -0.00000000
         2         1         1         1         4         3     -0.00000000
         2         1         1         1         4         4     -0.00000000
         2         1         1         1         4         5      0.00000000
         2         1         1         1         4         6      0.00000000
         2         1         1         1         4         7     -0.00011933
         2         1         1         1         4         8     -0.00000000
         2         1         1         1         4         9     -0.00000000
         2         1         1         1         4        10     -0.00000000
         2         1         1         1         4        11      0.00000000
         2         1         1         1         4        12     -0.00023446
         2         1         1         1         4        13      0.00000000
         2         1         1         1         4        14      0.00000000
         2         1         1         1         4        15     -0.00036895
         2         1         1         1         5         1      0.00000000
         2         1         1         1         5         2     -0.00002639
         2         1         1         1         5         3      0.00002098
         2         1         1         1         5         4      0.00000000
         2         1         1         1         5         5      0.00000000
         2         1         1         1         5         6      0.00000000
         2         1         1         1         5         7      0.00000000
         2         1         1         1         5         8     -0.00000000
         2         1         1         1         5         9     -0.00012160
         2         1         1         1         5        10     -0.00004775
         2         1         1         1         5        11      0.00000000
         2         1         1         1         5        12      0.00000000
         2         1         1         1         5        13      0.00000000
         2         1         1         1         5        14     -0.00000000
         2         1         1         1         5        15      0.00000000
         2         1         1         1         6         1     -0.00000000
         2         1         1         1         6         2     -0.00002098
         2         1         1         1         6         3     -0.00002639
         2         1         1         1         6         4      0.00000000
         2         1         1         1         6         5      0.00000000
         2         1         1         1         6         6      0.00000000
         2         1         1         1         6         7      0.00000000
         2         1         1         1         6         8     -0.00000000
         2         1         1         1         6         9      0.00004775
         2         1         1         1         6        10     -0.00012160
         2         1         1         1         6        11     -0.00000000
         2         1         1         1         6        12      0.00000000
         2         1         1         1         6        13     -0.00000000
         2         1         1         1         6        14     -0.00000000
         2         1         1         1         6        15      0.00000000
         2         1         1         1         7         1     -0.00000000
         2         1         1         1         7         2      0.00000000
         2         1         1         1         7         3      0.00000000
         2         1         1         1         7         4     -0.00010850
         2         1         1         1         7         5      0.00000000
         2         1         1         1         7         6      0.00000000
         2         1         1         1         7         7      0.00000000
         2         1         1         1         7         8     -0.00002619
         2         1         1         1         7         9      0.00000000
         2         1         1         1         7        10      0.00000000
         2         1         1         1         7        11     -0.00070074
         2         1         1         1         7        12     -0.00000000
         2         1         1         1         7        13     -0.00000000
         2         1         1         1         7        14     -0.00000000
         2         1         1         1         7        15      0.00000000
         2         1         1         1         8         1     -0.00001686
         2         1         1         1         8         2      0.00000000
         2         1         1         1         8         3      0.00000000
         2         1         1         1         8         4     -0.00000000
         2         1         1         1         8         5     -0.00000000
         2         1         1         1         8         6     -0.00000000
         2         1         1         1         8         7     -0.00000236
         2         1         1         1         8         8      0.00000000
         2         1         1         1         8         9      0.00000000
         2         1         1         1         8        10      0.00000000
         2         1         1         1         8        11      0.00000000
         2         1         1         1         8        12      0.00066601
         2         1         1         1         8        13     -0.00000000
         2         1         1         1         8        14     -0.00000000
         2         1         1         1         8        15      0.00096037
         2         1         1         1         9         1     -0.00000000
         2         1         1         1         9         2     -0.00000000
         2         1         1         1         9         3     -0.00000000
         2         1         1         1         9         4     -0.00000000
         2         1         1         1         9         5     -0.00011399
         2         1         1         1         9         6      0.00004476
         2         1         1         1         9         7      0.00000000
         2         1         1         1         9         8      0.00000000
         2         1         1         1         9         9      0.00000000
         2         1         1         1         9        10      0.00000000
         2         1         1         1         9        11      0.00000000
         2         1         1         1         9        12     -0.00000000
         2         1         1         1         9        13      0.00045464
         2         1         1         1         9        14     -0.00104962
         2         1         1         1         9        15      0.00000000
         2         1         1         1        10         1     -0.00000000
         2         1         1         1        10         2     -0.00000000
         2         1         1         1        10         3     -0.00000000
         2         1         1         1        10         4     -0.00000000
         2         1         1         1        10         5     -0.00004476
         2         1         1         1        10         6     -0.00011399
         2         1         1         1        10         7      0.00000000
         2         1         1         1        10         8      0.00000000
         2         1         1         1        10         9      0.00000000
         2         1         1         1        10        10      0.00000000
         2         1         1         1        10        11     -0.00000000
         2         1         1         1        10        12     -0.00000000
         2         1         1         1        10        13     -0.00104962
         2         1         1         1        10        14     -0.00045464
         2         1         1         1        10        15     -0.00000000
         2         1         1         1        11         1      0.00048839
         2         1         1         1        11         2      0.00000000
         2         1         1         1        11         3      0.00000000
         2         1         1         1        11         4      0.00000000
         2         1         1         1        11         5     -0.00000000
         2         1         1         1        11         6     -0.00000000
         2         1         1         1        11         7     -0.00068490
         2         1         1         1        11         8      0.00000000
         2         1         1         1        11         9      0.00000000
         2         1         1         1        11        10     -0.00000000
         2         1         1         1        11        11     -0.00000000
         2         1         1         1        11        12      0.00061912
         2         1         1         1        11        13     -0.00000000
         2         1         1         1        11        14     -0.00000000
         2         1         1         1        11        15      0.00041181
         2         1         1         1        12         1      0.00000000
         2         1         1         1        12         2     -0.00000000
         2         1         1         1        12         3     -0.00000000
         2         1         1         1        12         4     -0.00026431
         2         1         1         1        12         5      0.00000000
         2         1         1         1        12         6      0.00000000
         2         1         1         1        12         7     -0.00000000
         2         1         1         1        12         8      0.00073208
         2         1         1         1        12         9     -0.00000000
         2         1         1         1        12        10     -0.00000000
         2         1         1         1        12        11      0.00066103
         2         1         1         1        12        12     -0.00000000
         2         1         1         1        12        13      0.00000000
         2         1         1         1        12        14     -0.00000000
         2         1         1         1        12        15      0.00000000
         2         1         1         1        13         1      0.00000000
         2         1         1         1        13         2     -0.00018723
         2         1         1         1        13         3     -0.00025297
         2         1         1         1        13         4      0.00000000
         2         1         1         1        13         5      0.00000000
         2         1         1         1        13         6     -0.00000000
         2         1         1         1        13         7     -0.00000000
         2         1         1         1        13         8     -0.00000000
         2         1         1         1        13         9      0.00047535
         2         1         1         1        13        10     -0.00109743
         2         1         1         1        13        11     -0.00000000
         2         1         1         1        13        12      0.00000000
         2         1         1         1        13        13     -0.00000000
         2         1         1         1        13        14     -0.00000000
         2         1         1         1        13        15     -0.00000000
         2         1         1         1        14         1      0.00000000
         2         1         1         1        14         2     -0.00025297
         2         1         1         1        14         3      0.00018723
         2         1         1         1        14         4      0.00000000
         2         1         1         1        14         5     -0.00000000
         2         1         1         1        14         6     -0.00000000
         2         1         1         1        14         7     -0.00000000
         2         1         1         1        14         8     -0.00000000
         2         1         1         1        14         9     -0.00109743
         2         1         1         1        14        10     -0.00047535
         2         1         1         1        14        11     -0.00000000
         2         1         1         1        14        12     -0.00000000
         2         1         1         1        14        13     -0.00000000
         2         1         1         1        14        14     -0.00000000
         2         1         1         1        14        15     -0.00000000
         2         1         1         1        15         1     -0.00000000
         2         1         1         1        15         2     -0.00000000
         2         1         1         1        15         3     -0.00000000
         2         1         1         1        15         4     -0.00039933
         2         1         1         1        15         5      0.00000000
         2         1         1         1        15         6      0.00000000
         2         1         1         1        15         7      0.00000000
         2         1         1         1        15         8      0.00102801
         2         1         1         1        15         9      0.00000000
         2         1         1         1        15        10     -0.00000000
         2         1         1         1        15        11      0.00045437
         2         1         1         1        15        12      0.00000000
         2         1         1         1        15        13     -0.00000000
         2         1         1         1        15        14     -0.00000000
         2         1         1         1        15        15     -0.00000000
         2         2         1         1         1         1     -0.00044328
         2         2         1         1         1         2     -0.00000000
         2         2         1         1         1         3     -0.00000000
         2         2         1         1         1         4     -0.00000000
         2         2         1         1         1         5      0.00000000
         2         2         1         1         1         6      0.00000000
         2         2         1         1         1         7      0.00076266
         2         2         1         1         1         8      0.00000000
         2         2         1         1         1         9     -0.00000000
         2         2         1         1         1        10     -0.00000000
         2         2         1         1         1        11     -0.00000000
         2         2         1         1         1        12     -0.00023414
         2         2         1         1         1        13      0.00000000
         2         2         1         1         1        14      0.00000000
         2         2         1         1         1        15     -0.00002847
         2         2         1         1         2         1     -0.00000000
         2         2         1         1         2         2      0.00016618
         2         2         1         1         2         3     -0.00000000
         2         2         1         1         2         4     -0.00000000
         2         2         1         1         2         5      0.00000000
         2         2         1         1         2         6      0.00000000
         2         2         1         1         2         7     -0.00000000
         2         2         1         1         2         8     -0.00000000
         2         2         1         1         2         9     -0.00007188
         2         2         1         1         2        10     -0.00012413
         2         2         1         1         2        11     -0.00000000
         2         2         1         1         2        12     -0.00000000
         2         2         1         1         2        13      0.00000000
         2         2         1         1         2        14      0.00000000
         2         2         1         1         2        15      0.00000000
         2         2         1         1         3         1     -0.00000000
         2         2         1         1         3         2     -0.00000000
         2         2         1         1         3         3      0.00016618
         2         2         1         1         3         4     -0.00000000
         2         2         1         1         3         5     -0.00000000
         2         2         1         1         3         6      0.00000000
         2         2         1         1         3         7      0.00000000
         2         2         1         1         3         8     -0.00000000
         2         2         1         1         3         9      0.00012413
         2         2         1         1         3        10     -0.00007188
         2         2         1         1         3        11     -0.00000000
         2         2         1         1         3        12     -0.00000000
         2         2         1         1         3        13      0.00000000
         2         2         1         1         3        14     -0.00000000
         2         2         1         1         3        15      0.00000000
         2         2         1         1         4         1     -0.00000000
         2         2         1         1         4         2     -0.00000000
         2         2         1         1         4         3     -0.00000000
         2         2         1         1         4         4     -0.00001388
         2         2         1         1         4         5      0.00000000
         2         2         1         1         4         6      0.00000000
         2         2         1         1         4         7     -0.00000000
         2         2         1         1         4         8      0.00020351
         2         2         1         1         4         9      0.00000000
         2         2         1         1         4        10     -0.00000000
         2         2         1         1         4        11      0.00007758
         2         2         1         1         4        12     -0.00000000
         2         2         1         1         4        13      0.00000000
         2         2         1         1         4        14      0.00000000
         2         2         1         1         4        15      0.00000000
         2         2         1         1         5         1      0.00000000
         2         2         1         1         5         2      0.00000000
         2         2         1         1         5         3     -0.00000000
         2         2         1         1         5         4      0.00000000
         2         2         1         1         5         5     -0.00001496
         2         2         1         1         5         6     -0.00000000
         2         2         1         1         5         7     -0.00000000
         2         2         1         1         5         8     -0.00000000
         2         2         1         1         5         9     -0.00000000
         2         2         1         1         5        10     -0.00000000
         2         2         1         1         5        11      0.00000000
         2         2         1         1         5        12      0.00000000
         2         2         1         1         5        13      0.00000518
         2         2         1         1         5        14     -0.00014972
         2         2         1         1         5        15     -0.00000000
         2         2         1         1         6         1      0.00000000
         2         2         1         1         6         2      0.00000000
         2         2         1         1         6         3      0.00000000
         2         2         1         1         6         4      0.00000000
         2         2         1         1         6         5     -0.00000000
         2         2         1         1         6         6     -0.00001496
         2         2         1         1         6         7     -0.00000000
         2         2         1         1         6         8     -0.00000000
         2         2         1         1         6         9      0.00000000
         2         2         1         1         6        10     -0.00000000
         2         2         1         1         6        11      0.00000000
         2         2         1         1         6        12      0.00000000
         2         2         1         1         6        13     -0.00014972
         2         2         1         1         6        14     -0.00000518
         2         2         1         1         6        15     -0.00000000
         2         2         1         1         7         1      0.00076266
         2         2         1         1         7         2     -0.00000000
         2         2         1         1         7         3      0.00000000
         2         2         1         1         7         4     -0.00000000
         2         2         1         1         7         5     -0.00000000
         2         2         1         1         7         6     -0.00000000
         2         2         1         1         7         7     -0.00113892
         2         2         1         1         7         8      0.00000000
         2         2         1         1         7         9     -0.00000000
         2         2         1         1         7        10     -0.00000000
         2         2         1         1         7        11     -0.00000000
         2         2         1         1         7        12      0.00034528
         2         2         1         1         7        13     -0.00000000
         2         2         1         1         7        14     -0.00000000
         2         2         1         1         7        15      0.00005597
         2         2         1         1         8         1      0.00000000
         2         2         1         1         8         2     -0.00000000
         2         2         1         1         8         3     -0.00000000
         2         2         1         1         8         4      0.00020351
         2         2         1         1         8         5     -0.00000000
         2         2         1         1         8         6     -0.00000000
         2         2         1         1         8         7      0.00000000
         2         2         1         1         8         8     -0.00065161
         2         2         1         1         8         9     -0.00000000
         2         2         1         1         8        10     -0.00000000
         2         2         1         1         8        11     -0.00036892
         2         2         1         1         8        12      0.00000000
         2         2         1         1         8        13     -0.00000000
         2         2         1         1         8        14      0.00000000
         2         2         1         1         8        15     -0.00000000
         2         2         1         1         9         1     -0.00000000
         2         2         1         1         9         2     -0.00007188
         2         2         1         1         9         3      0.00012413
         2         2         1         1         9         4      0.00000000
         2         2         1         1         9         5     -0.00000000
         2         2         1         1         9         6      0.00000000
         2         2         1         1         9         7     -0.00000000
         2         2         1         1         9         8     -0.00000000
         2         2         1         1         9         9     -0.00091572
         2         2         1         1         9        10      0.00000000
         2         2         1         1         9        11      0.00000000
         2         2         1         1         9        12     -0.00000000
         2         2         1         1         9        13      0.00000000
         2         2         1         1         9        14     -0.00000000
         2         2         1         1         9        15      0.00000000
         2         2         1         1        10         1     -0.00000000
         2         2         1         1        10         2     -0.00012413
         2         2         1         1        10         3     -0.00007188
         2         2         1         1        10         4     -0.00000000
         2         2         1         1        10         5     -0.00000000
         2         2         1         1        10         6     -0.00000000
         2         2         1         1        10         7     -0.00000000
         2         2         1         1        10         8     -0.00000000
         2         2         1         1        10         9     -0.00000000
         2         2         1         1        10        10     -0.00091572
         2         2         1         1        10        11     -0.00000000
         2         2         1         1        10        12     -0.00000000
         2         2         1         1        10        13     -0.00000000
         2         2         1         1        10        14     -0.00000000
         2         2         1         1        10        15      0.00000000
         2         2         1         1        11         1     -0.00000000
         2         2         1         1        11         2     -0.00000000
         2         2         1         1        11         3     -0.00000000
         2         2         1         1        11         4      0.00007758
         2         2         1         1        11         5      0.00000000
         2         2         1         1        11         6      0.00000000
         2         2         1         1        11         7     -0.00000000
         2         2         1         1        11         8     -0.00036892
         2         2         1         1        11         9      0.00000000
         2         2         1         1        11        10     -0.00000000
         2         2         1         1        11        11     -0.00065909
         2         2         1         1        11        12     -0.00000000
         2         2         1         1        11        13     -0.00000000
         2         2         1         1        11        14      0.00000000
         2         2         1         1        11        15      0.00000000
         2         2         1         1        12         1     -0.00023414
         2         2         1         1        12         2     -0.00000000
         2         2         1         1        12         3     -0.00000000
         2         2         1         1        12         4     -0.00000000
         2         2         1         1        12         5      0.00000000
         2         2         1         1        12         6      0.00000000
         2         2         1         1        12         7      0.00034528
         2         2         1         1        12         8      0.00000000
         2         2         1         1        12         9     -0.00000000
         2         2         1         1        12        10     -0.00000000
         2         2         1         1        12        11     -0.00000000
         2         2         1         1        12        12     -0.00085201
         2         2         1         1        12        13      0.00000000
         2         2         1         1        12        14      0.00000000
         2         2         1         1        12        15     -0.00086609
         2         2         1         1        13         1      0.00000000
         2         2         1         1        13         2      0.00000000
         2         2         1         1        13         3      0.00000000
         2         2         1         1        13         4      0.00000000
         2         2         1         1        13         5      0.00000518
         2         2         1         1        13         6     -0.00014972
         2         2         1         1        13         7     -0.00000000
         2         2         1         1        13         8     -0.00000000
         2         2         1         1        13         9      0.00000000
         2         2         1         1        13        10     -0.00000000
         2         2         1         1        13        11     -0.00000000
         2         2         1         1        13        12      0.00000000
         2         2         1         1        13        13     -0.00139130
         2         2         1         1        13        14     -0.00000000
         2         2         1         1        13        15     -0.00000000
         2         2         1         1        14         1      0.00000000
         2         2         1         1        14         2      0.00000000
         2         2         1         1        14         3     -0.00000000
         2         2         1         1        14         4      0.00000000
         2         2         1         1        14         5     -0.00014972
         2         2         1         1        14         6     -0.00000518
         2         2         1         1        14         7     -0.00000000
         2         2         1         1        14         8      0.00000000
         2         2         1         1        14         9     -0.00000000
         2         2         1         1        14        10     -0.00000000
         2         2         1         1        14        11      0.00000000
         2         2         1         1        14        12      0.00000000
         2         2         1         1        14        13      0.00000000
         2         2         1         1        14        14     -0.00139130
         2         2         1         1        14        15      0.00000000
         2         2         1         1        15         1     -0.00002847
         2         2         1         1        15         2      0.00000000
         2         2         1         1        15         3      0.00000000
         2         2         1         1        15         4      0.00000000
         2         2         1         1        15         5     -0.00000000
         2         2         1         1        15         6     -0.00000000
         2         2         1         1        15         7      0.00005597
         2         2         1         1        15         8     -0.00000000
         2         2         1         1        15         9      0.00000000
         2         2         1         1        15        10      0.00000000
         2         2         1         1        15        11      0.00000000
         2         2         1         1        15        12     -0.00086609
         2         2         1         1        15        13     -0.00000000
         2         2         1         1        15        14      0.00000000
         2         2         1         1        15        15     -0.00137552
         3         1         1         1         1         1      0.00027093
         3         1         1         1         1         2     -0.00000000
         3         1         1         1         1         3     -0.00000000
         3         1         1         1         1         4     -0.00000000
         3         1         1         1         1         5      0.00000000
         3         1         1         1         1         6      0.00000000
         3         1         1         1         1         7     -0.00029599
         3         1         1         1         1         8      0.00000000
         3         1         1         1         1         9      0.00000000
         3         1         1         1         1        10     -0.00000000
         3         1         1         1         1        11      0.00000000
         3         1         1         1         1        12     -0.00055330
         3         1         1         1         1        13     -0.00000000
         3         1         1         1         1        14      0.00000000
         3         1         1         1         1        15     -0.00088601
         3         1         1         1         2         1      0.00000000
         3         1         1         1         2         2     -0.00060960
         3         1         1         1         2         3      0.00000000
         3         1         1         1         2         4      0.00000000
         3         1         1         1         2         5     -0.00000000
         3         1         1         1         2         6     -0.00000000
         3         1         1         1         2         7      0.00000000
         3         1         1         1         2         8      0.00000000
         3         1         1         1         2         9     -0.00075228
         3         1         1         1         2        10     -0.00129912
         3         1         1         1         2        11      0.00000000
         3         1         1         1         2        12     -0.00000000
         3         1         1         1         2        13     -0.00000000
         3         1         1         1         2        14     -0.00000000
         3         1         1         1         2        15     -0.00000000
         3         1         1         1         3         1     -0.00000000
         3         1         1         1         3         2     -0.00000000
         3         1         1         1         3         3     -0.00060960
         3         1         1         1         3         4      0.00000000
         3         1         1         1         3         5      0.00000000
         3         1         1         1         3         6     -0.00000000
         3         1         1         1         3         7     -0.00000000
         3         1         1         1         3         8     -0.00000000
         3         1         1         1         3         9      0.00129912
         3         1         1         1         3        10     -0.00075228
         3         1         1         1         3        11      0.00000000
         3         1         1         1         3        12     -0.00000000
         3         1         1         1         3        13     -0.00000000
         3         1         1         1         3        14      0.00000000
         3         1         1         1         3        15     -0.00000000
         3         1         1         1         4         1     -0.00000000
         3         1         1         1         4         2     -0.00000000
         3         1         1         1         4         3      0.00000000
         3         1         1         1         4         4     -0.00068270
         3         1         1         1         4         5     -0.00000000
         3         1         1         1         4         6     -0.00000000
         3         1         1         1         4         7      0.00000000
         3         1         1         1         4         8      0.00142090
         3         1         1         1         4         9      0.00000000
         3         1         1         1         4        10      0.00000000
         3         1         1         1         4        11      0.00105799
         3         1         1         1         4        12     -0.00000000
         3         1         1         1         4        13      0.00000000
         3         1         1         1         4        14      0.00000000
         3         1         1         1         4        15     -0.00000000
         3         1         1         1         5         1     -0.00000000
         3         1         1         1         5         2     -0.00000000
         3         1         1         1         5         3      0.00000000
         3         1         1         1         5         4      0.00000000
         3         1         1         1         5         5     -0.00016196
         3         1         1         1         5         6     -0.00000000
         3         1         1         1         5         7      0.00000000
         3         1         1         1         5         8     -0.00000000
         3         1         1         1         5         9     -0.00000000
         3         1         1         1         5        10     -0.00000000
         3         1         1         1         5        11     -0.00000000
         3         1         1         1         5        12     -0.00000000
         3         1         1         1         5        13      0.00003205
         3         1         1         1         5        14     -0.00092645
         3         1         1         1         5        15      0.00000000
         3         1         1         1         6         1      0.00000000
         3         1         1         1         6         2     -0.00000000
         3         1         1         1         6         3     -0.00000000
         3         1         1         1         6         4      0.00000000
         3         1         1         1         6         5     -0.00000000
         3         1         1         1         6         6     -0.00016196
         3         1         1         1         6         7     -0.00000000
         3         1         1         1         6         8     -0.00000000
         3         1         1         1         6         9      0.00000000
         3         1         1         1         6        10     -0.00000000
         3         1         1         1         6        11     -0.00000000
         3         1         1         1         6        12      0.00000000
         3         1         1         1         6        13     -0.00092645
         3         1         1         1         6        14     -0.00003205
         3         1         1         1         6        15      0.00000000
         3         1         1         1         7         1     -0.00046874
         3         1         1         1         7         2      0.00000000
         3         1         1         1         7         3      0.00000000
         3         1         1         1         7         4      0.00000000
         3         1         1         1         7         5     -0.00000000
         3         1         1         1         7         6     -0.00000000
         3         1         1         1         7         7      0.00052878
         3         1         1         1         7         8     -0.00000000
         3         1         1         1         7         9     -0.00000000
         3         1         1         1         7        10      0.00000000
         3         1         1         1         7        11     -0.00000000
         3         1         1         1         7        12      0.00016978
         3         1         1         1         7        13      0.00000000
         3         1         1         1         7        14     -0.00000000
         3         1         1         1         7        15      0.00054521
         3         1         1         1         8         1     -0.00000000
         3         1         1         1         8         2      0.00000000
         3         1         1         1         8         3     -0.00000000
         3         1         1         1         8         4      0.00080756
         3         1         1         1         8         5      0.00000000
         3         1         1         1         8         6      0.00000000
         3         1         1         1         8         7      0.00000000
         3         1         1         1         8         8     -0.00174977
         3         1         1         1         8         9     -0.00000000
         3         1         1         1         8        10     -0.00000000
         3         1         1         1         8        11     -0.00135054
         3         1         1         1         8        12      0.00000000
         3         1         1         1         8        13     -0.00000000
         3         1         1         1         8        14      0.00000000
[...]
         3         3         1         1         1         3      0.00000000
         3         3         1         1         1         4     -0.00000000
         3         3         1         1         1         5     -0.00000000
         3         3         1         1         1         6     -0.00000000
         3         3         1         1         1         7      0.06199220
         3         3         1         1         1         8     -0.00000000
         3         3         1         1         1         9     -0.00000000
         3         3         1         1         1        10      0.00000000
         3         3         1         1         1        11      0.00000000
         3         3         1         1         1        12     -0.00403340
         3         3         1         1         1        13     -0.00000000
         3         3         1         1         1        14      0.00000000
         3         3         1         1         1        15      0.02557455
         3         3         1         1         2         1      0.00000000
         3         3         1         1         2         2     -0.14254493
         3         3         1         1         2         3      0.00000000
         3         3         1         1         2         4      0.00000000
         3         3         1         1         2         5     -0.00000000
         3         3         1         1         2         6     -0.00000000
         3         3         1         1         2         7      0.00000000
         3         3         1         1         2         8      0.00000000
         3         3         1         1         2         9     -0.03466489
         3         3         1         1         2        10     -0.05986350
         3         3         1         1         2        11      0.00000000
         3         3         1         1         2        12     -0.00000000
         3         3         1         1         2        13     -0.00000000
         3         3         1         1         2        14     -0.00000000
         3         3         1         1         2        15     -0.00000000
         3         3         1         1         3         1      0.00000000
         3         3         1         1         3         2      0.00000000
         3         3         1         1         3         3     -0.14254493
         3         3         1         1         3         4      0.00000000
         3         3         1         1         3         5      0.00000000
         3         3         1         1         3         6     -0.00000000
         3         3         1         1         3         7     -0.00000000
         3         3         1         1         3         8      0.00000000
         3         3         1         1         3         9      0.05986350
         3         3         1         1         3        10     -0.03466489
         3         3         1         1         3        11      0.00000000
         3         3         1         1         3        12     -0.00000000
         3         3         1         1         3        13     -0.00000000
         3         3         1         1         3        14      0.00000000
         3         3         1         1         3        15     -0.00000000
         3         3         1         1         4         1     -0.00000000
         3         3         1         1         4         2      0.00000000
         3         3         1         1         4         3      0.00000000
         3         3         1         1         4         4     -0.07048749
         3         3         1         1         4         5     -0.00000000
         3         3         1         1         4         6     -0.00000000
         3         3         1         1         4         7      0.00000000
         3         3         1         1         4         8      0.05662005
         3         3         1         1         4         9     -0.00000000
         3         3         1         1         4        10      0.00000000
         3         3         1         1         4        11      0.00163215
         3         3         1         1         4        12      0.00000000
         3         3         1         1         4        13     -0.00000000
         3         3         1         1         4        14     -0.00000000
         3         3         1         1         4        15      0.00000000
         3         3         1         1         5         1     -0.00000000
         3         3         1         1         5         2     -0.00000000
         3         3         1         1         5         3      0.00000000
         3         3         1         1         5         4     -0.00000000
         3         3         1         1         5         5      0.00080899
         3         3         1         1         5         6      0.00000000
         3         3         1         1         5         7      0.00000000
         3         3         1         1         5         8      0.00000000
         3         3         1         1         5         9      0.00000000
         3         3         1         1         5        10      0.00000000
         3         3         1         1         5        11     -0.00000000
         3         3         1         1         5        12     -0.00000000
         3         3         1         1         5        13      0.00003310
         3         3         1         1         5        14     -0.00095680
         3         3         1         1         5        15      0.00000000
         3         3         1         1         6         1     -0.00000000
         3         3         1         1         6         2     -0.00000000
         3         3         1         1         6         3     -0.00000000
         3         3         1         1         6         4     -0.00000000
         3         3         1         1         6         5      0.00000000
         3         3         1         1         6         6      0.00080899
         3         3         1         1         6         7      0.00000000
         3         3         1         1         6         8     -0.00000000
         3         3         1         1         6         9     -0.00000000
         3         3         1         1         6        10      0.00000000
         3         3         1         1         6        11     -0.00000000
         3         3         1         1         6        12     -0.00000000
         3         3         1         1         6        13     -0.00095680
         3         3         1         1         6        14     -0.00003310
         3         3         1         1         6        15      0.00000000
         3         3         1         1         7         1      0.06199220
         3         3         1         1         7         2      0.00000000
         3         3         1         1         7         3     -0.00000000
         3         3         1         1         7         4      0.00000000
         3         3         1         1         7         5      0.00000000
         3         3         1         1         7         6      0.00000000
         3         3         1         1         7         7     -0.03953467
         3         3         1         1         7         8      0.00000000
         3         3         1         1         7         9      0.00000000
         3         3         1         1         7        10      0.00000000
         3         3         1         1         7        11     -0.00000000
         3         3         1         1         7        12      0.00233270
         3         3         1         1         7        13      0.00000000
         3         3         1         1         7        14      0.00000000
         3         3         1         1         7        15     -0.01830433
         3         3         1         1         8         1     -0.00000000
         3         3         1         1         8         2      0.00000000
         3         3         1         1         8         3      0.00000000
         3         3         1         1         8         4      0.05662005
         3         3         1         1         8         5      0.00000000
         3         3         1         1         8         6     -0.00000000
         3         3         1         1         8         7      0.00000000
         3         3         1         1         8         8     -0.05428662
         3         3         1         1         8         9     -0.00000000
         3         3         1         1         8        10      0.00000000
         3         3         1         1         8        11      0.00309926
         3         3         1         1         8        12      0.00000000
         3         3         1         1         8        13      0.00000000
         3         3         1         1         8        14      0.00000000
         3         3         1         1         8        15      0.00000000
         3         3         1         1         9         1     -0.00000000
         3         3         1         1         9         2     -0.03466489
         3         3         1         1         9         3      0.05986350
         3         3         1         1         9         4     -0.00000000
         3         3         1         1         9         5      0.00000000
         3         3         1         1         9         6     -0.00000000
         3         3         1         1         9         7      0.00000000
         3         3         1         1         9         8     -0.00000000
         3         3         1         1         9         9     -0.03665612
         3         3         1         1         9        10     -0.00000000
         3         3         1         1         9        11      0.00000000
         3         3         1         1         9        12      0.00000000
         3         3         1         1         9        13     -0.00000000
         3         3         1         1         9        14      0.00000000
         3         3         1         1         9        15      0.00000000
         3         3         1         1        10         1      0.00000000
         3         3         1         1        10         2     -0.05986350
         3         3         1         1        10         3     -0.03466489
         3         3         1         1        10         4      0.00000000
         3         3         1         1        10         5      0.00000000
         3         3         1         1        10         6      0.00000000
         3         3         1         1        10         7      0.00000000
         3         3         1         1        10         8      0.00000000
         3         3         1         1        10         9     -0.00000000
         3         3         1         1        10        10     -0.03665612
         3         3         1         1        10        11      0.00000000
         3         3         1         1        10        12     -0.00000000
         3         3         1         1        10        13      0.00000000
         3         3         1         1        10        14      0.00000000
         3         3         1         1        10        15     -0.00000000
         3         3         1         1        11         1      0.00000000
         3         3         1         1        11         2      0.00000000
         3         3         1         1        11         3      0.00000000
         3         3         1         1        11         4      0.00163215
         3         3         1         1        11         5     -0.00000000
         3         3         1         1        11         6     -0.00000000
         3         3         1         1        11         7     -0.00000000
         3         3         1         1        11         8      0.00309926
         3         3         1         1        11         9      0.00000000
         3         3         1         1        11        10      0.00000000
         3         3         1         1        11        11     -0.00431909
         3         3         1         1        11        12     -0.00000000
         3         3         1         1        11        13     -0.00000000
         3         3         1         1        11        14     -0.00000000
         3         3         1         1        11        15     -0.00000000
         3         3         1         1        12         1     -0.00403340
         3         3         1         1        12         2     -0.00000000
         3         3         1         1        12         3     -0.00000000
         3         3         1         1        12         4      0.00000000
         3         3         1         1        12         5     -0.00000000
         3         3         1         1        12         6     -0.00000000
         3         3         1         1        12         7      0.00233270
         3         3         1         1        12         8      0.00000000
         3         3         1         1        12         9      0.00000000
         3         3         1         1        12        10     -0.00000000
         3         3         1         1        12        11     -0.00000000
         3         3         1         1        12        12      0.00006573
         3         3         1         1        12        13     -0.00000000
         3         3         1         1        12        14     -0.00000000
         3         3         1         1        12        15      0.00114117
         3         3         1         1        13         1     -0.00000000
         3         3         1         1        13         2     -0.00000000
         3         3         1         1        13         3     -0.00000000
         3         3         1         1        13         4     -0.00000000
         3         3         1         1        13         5      0.00003310
         3         3         1         1        13         6     -0.00095680
         3         3         1         1        13         7      0.00000000
         3         3         1         1        13         8      0.00000000
         3         3         1         1        13         9     -0.00000000
         3         3         1         1        13        10      0.00000000
         3         3         1         1        13        11     -0.00000000
         3         3         1         1        13        12     -0.00000000
         3         3         1         1        13        13     -0.00303839
         3         3         1         1        13        14      0.00000000
         3         3         1         1        13        15      0.00000000
         3         3         1         1        14         1      0.00000000
         3         3         1         1        14         2     -0.00000000
         3         3         1         1        14         3      0.00000000
         3         3         1         1        14         4     -0.00000000
         3         3         1         1        14         5     -0.00095680
         3         3         1         1        14         6     -0.00003310
         3         3         1         1        14         7      0.00000000
         3         3         1         1        14         8      0.00000000
         3         3         1         1        14         9      0.00000000
         3         3         1         1        14        10      0.00000000
         3         3         1         1        14        11     -0.00000000
         3         3         1         1        14        12     -0.00000000
         3         3         1         1        14        13      0.00000000
         3         3         1         1        14        14     -0.00303839
         3         3         1         1        14        15      0.00000000
         3         3         1         1        15         1      0.02557455
         3         3         1         1        15         2     -0.00000000
         3         3         1         1        15         3     -0.00000000
         3         3         1         1        15         4      0.00000000
         3         3         1         1        15         5      0.00000000
         3         3         1         1        15         6      0.00000000
         3         3         1         1        15         7     -0.01830433
         3         3         1         1        15         8      0.00000000
         3         3         1         1        15         9      0.00000000
         3         3         1         1        15        10     -0.00000000
         3         3         1         1        15        11     -0.00000000
         3         3         1         1        15        12      0.00114117
         3         3         1         1        15        13      0.00000000
         3         3         1         1        15        14      0.00000000
         3         3         1         1        15        15     -0.01159376


 RESULTS
 =======

  Reference energy                    -14.865446739065

  Correlated core orbitals:             1.1       2.1
  Orbital energies:                    -2.4408   -2.4405

  CCSD core-core energy                -0.000304708077
  CCSD core-valence energy             -0.000495336003
  CCSD valence correlation energy      -0.027066243212

  CCSD singlet pair energy             -0.027755626007
  CCSD triplet pair energy             -0.000110661327
  CCSD correlation energy              -0.027866287292

 !CCSD total energy                   -14.893313026357

 Timing summary (sec):

 STEP                 CPU(USER)    SYS     CPU(TOT)    WALL
 Transformation          0.01      0.00      0.01      0.00
 CCSD iterations         0.11      0.03      0.14      0.15

 Program statistics:

 Available memory in ccsd:                39999164
 Min. memory needed in ccsd:                  8005
 Max. memory used in ccsd:                    8374
 Max. memory used in cckext:                 38960 (30 integral passes)



 **********************************************************************************************************************************
 DATASETS  * FILE   NREC   LENGTH (MB)   RECORD NAMES
              1      20       30.07       500      700      610      900      950      970     1000      129      960     1100   
                                          VAR     GEOM    BASINP   SYMINP    ZMAT    AOBASIS   BASIS     P2S    ABASIS      S 
                                         1400     1410     1200     1210     1080     1600     1650     1300     1700     1380   
                                           T        V       H0       H01     AOSYM     SMH    MOLCAS    ERIS     OPER     JKOP   

              3       5       14.77       500      610      700     1000     2100   
                                          VAR    BASINP    GEOM     BASIS     RHF  

 PROGRAMS   *        TOTAL      CCSD       INT   RESTART
 CPU TIMES  *         0.48      0.19      0.15      0.02
 REAL TIME  *         0.67 SEC
 DISK USED  *        49.44 MB
 **********************************************************************************************************************************
 Molecular orbitals read from record     2100.3  Type=RHF/CANONICAL (state 1.1)
 Occupation numbers read from record     2100.3  Type=RHF/RHF (state 1.1)
 Orbital energies read from record       2100.3  Type=RHF/CANONICAL (state 1.1)
 Redundancy group numbers read from rec  2100.3  Type=RHF/RHF (state 1.1)

 CCSD/6-31G energy=    -14.893313026357

            CCSD
    -14.89331303
 **********************************************************************************************************************************
 Molpro calculation terminated
