
 Primary working directories    : /scr/yuriaoto/job.023486/molpro.goLAqDoNgg
 Secondary working directories  : /scr/yuriaoto/job.023486/molpro.goLAqDoNgg
 Wavefunction directory         : /scr/yuriaoto/job.023486/
 Main file repository           : /scr/yuriaoto/job.023486/molpro.goLAqDoNgg/

 id        : yuriaoto

 Nodes             nprocs
 t-rex.ufabc.int.br    1

 Using customized tuning parameters: mindgm=8; mindgv=16; mindgc=1; mindgr=1; noblas=0; minvec=7
 default implementation of scratch files=df  


 Variables initialized (933), CPU time= 0.00 sec
 ***,
 memory,40,m
 gprint,orbital,basis,civector
 gthresh,thrprint=0,printci=0.0
 file,3,wfu.dat,old
 
 {cisd,CC_NORM_MAX=10.0
 thresh,printci=0.0,ENERGY=1.0E-10,COEFF=1.0E-12
 print,ref=1
 wf,6,1,0;
 }
 
 Commands  initialized (760), CPU time= 0.01 sec, 617 directives.
 Default parameters read. Elapsed time= 0.03 sec

 Checking input...
 Passed
1


                                         ***  PROGRAM SYSTEM MOLPRO  ***
                                       Copyright, TTI GmbH Stuttgart, 2015
                                    Version 2019.2 linked Abr  7 2019 15:10:35


 **********************************************************************************************************************************
 LABEL *                                                                                 
  64 bit serial version                                                                  DATE: 02-Jun-20          TIME: 00:54:14  
 **********************************************************************************************************************************

 SHA1:             3a8a58c585c929645742fb5a1b7541a4ad1da699
 **********************************************************************************************************************************


 THRESHOLDS:

 ZERO    =  1.00D-12  ONEINT  =  1.00D-12  TWOINT  =  1.00D-11  PREFAC  =  1.00D-14  XXXXXX  =  1.00D-09  EORDER  =  1.00D-04
 ENERGY  =  0.00D+00  ETEST   =  0.00D+00  EDENS   =  0.00D+00  THRDEDEF=  1.00D-06  GRADIENT=  1.00D-02  STEP    =  1.00D-03
 ORBITAL =  1.00D-05  CIVEC   =  1.00D-05  COEFF   =  1.00D-04  PRINTCI =  0.00D+00  PUNCHCI =  9.90D+01  OPTGRAD =  3.00D-04
 OPTENERG=  1.00D-06  OPTSTEP =  3.00D-04  THRGRAD =  1.00D-10  COMPRESS=  1.00D-11  VARMIN  =  1.00D-07  VARMAX  =  1.00D-03
 THRDOUB =  0.00D+00  THRDIV  =  1.00D-05  THRRED  =  1.00D-07  THRPSP  =  1.00D+00  THRDC   =  1.00D-10  THRCS   =  1.00D-10
 THRNRM  =  1.00D-08  THREQ   =  0.00D+00  THRDE   =  1.00D+00  THRREF  =  1.00D-05  SPARFAC =  1.00D+00  THRDLP  =  1.00D-07
 THRDIA  =  1.00D-10  THRDLS  =  1.00D-07  THRGPS  =  0.00D+00  THRKEX  =  0.00D+00  THRDIS  =  2.00D-01  THRVAR  =  1.00D-10
 THRLOC  =  1.00D-06  THRGAP  =  1.00D-06  THRLOCT = -1.00D+00  THRGAPT = -1.00D+00  THRORB  =  1.00D-06  THRMLTP =  0.00D+00
 THRCPQCI=  1.00D-10  KEXTA   =  0.00D+00  THRCOARS=  0.00D+00  SYMTOL  =  1.00D-06  GRADTOL =  1.00D-06  THROVL  =  1.00D-08
 THRORTH =  1.00D-08  GRID    =  1.00D-06  GRIDMAX =  1.00D-03  DTMAX   =  0.00D+00  THROCCDE=  1.00D-01  THROCCDE=  1.00D-01
 THRPRINT=  0.00D+00


 Variable memory set to   40000000 words,  buffer space 



 Permanent file  3  wfu.dat  assigned.  Implementation=df    Size= 14.09 MB


 PROGRAM * RESTART 


 Reading variables from file 3

 _FNUC           =      0.00000000
 _BASIS          =    6-31G
 _NELEC          =      6.00000000
 _PROGRAM        =    RHF-SCF
 _DMX            =      0.00000000
 _DMY            =      0.00000000
 _DMZ            =     -0.00000000
 _DMX_SCF        =      0.00000000
 _DMY_SCF        =      0.00000000
 _DMZ_SCF        =     -0.00000000
 _HOMO           =      3.10000000
 _EHOMO          =     -0.17851751
 _LUMO           =      4.10000000
 _ELUMO          =      0.01777237
 _ENERGY         =    -14.86544674
 _ENERGY_METHOD  =    RHF
 _ENERGY_BASIS   =    6-31G
 _ENUC           =      1.80000000
 _EPS1(1:18)     =     -2.44083704    -2.44048610    -0.17851751     0.01777237     0.04562579     0.04562579
                        0.06347954     0.09250721     0.09250721     0.13971383     0.19419332     0.20818018
                        0.20818018     0.22544142     0.26575139     0.27049342     0.27049342     0.54809004
 _IPROC_MPP      =      0.00000000
 _IPROC_MPPX     =      0.00000000
 _ORBITAL        =   2100.30000000
 _STATUS         =      1.00000000
 _DATE           =    21-Oct-19
 _LASTORB        =    RHF
 _OUTPUT         =    /scr/yuriaoto/job.022406/RHF.xml
 _PGROUP         =    C1  
 _TIME           =    10:34:13
 R               =      5.00000000

 Geometry written to block  1 of record 700


 **********************************************************************************************************************************
 DATASETS  * FILE   NREC   LENGTH (MB)   RECORD NAMES
              3       5       14.77       500      610      700     1000     2100   
                                          VAR    BASINP    GEOM     BASIS     RHF  

 PROGRAMS   *        TOTAL   RESTART
 CPU TIMES  *         0.09      0.01
 REAL TIME  *         0.10 SEC
 DISK USED  *        26.84 MB
 **********************************************************************************************************************************


 Recomputing integrals since basis changed


 Using spherical harmonics

 Library entry LI     S 6-31G                selected for orbital group  1
 Library entry LI     P 6-31G                selected for orbital group  1


 PROGRAM * SEWARD (Integral evaluation for generally contracted gaussian basis sets)     Author: Roland Lindh, 1990

 Geometry written to block  1 of record 700

 Orientation using atomic masses  
 Molecule type: Linear
 Rotational constants:      20.8009354     20.8009354      0.0000000 GHz  (calculated with average atomic masses)

 Point group  C1  



 ATOMIC COORDINATES

 NR  ATOM    CHARGE       X              Y              Z

   1  LI1     3.00    0.000000000    0.000000000   -2.500000000
   2  LI2     3.00    0.000000000    0.000000000    2.500000000

 Bond lengths in Bohr (Angstrom)

 1-2  5.000000000
     ( 2.645886055)


 BASIS DATA

   Nr Sym  Nuc  Type         Exponents   Contraction coefficients

    1.1 A     1  1s         642.418910     0.002143
                             96.798515     0.016209
                             22.091121     0.077316
                              6.201070     0.245786
                              1.935118     0.470189
                              0.636736     0.345471
    2.1 A     1  1s           2.324918    -0.035092
                              0.632430    -0.191233
                              0.079053     1.083988
    3.1 A     1  1s           0.035962     1.000000
    4.1 A     1  2px          2.324918     0.008942
                              0.632430     0.141009
                              0.079053     0.945364
    5.1 A     1  2py          2.324918     0.008942
                              0.632430     0.141009
                              0.079053     0.945364
    6.1 A     1  2pz          2.324918     0.008942
                              0.632430     0.141009
                              0.079053     0.945364
    7.1 A     1  2px          0.035962     1.000000
    8.1 A     1  2py          0.035962     1.000000
    9.1 A     1  2pz          0.035962     1.000000
   10.1 A     2  1s         642.418910     0.002143
                             96.798515     0.016209
                             22.091121     0.077316
                              6.201070     0.245786
                              1.935118     0.470189
                              0.636736     0.345471
   11.1 A     2  1s           2.324918    -0.035092
                              0.632430    -0.191233
                              0.079053     1.083988
   12.1 A     2  1s           0.035962     1.000000
   13.1 A     2  2px          2.324918     0.008942
                              0.632430     0.141009
                              0.079053     0.945364
   14.1 A     2  2py          2.324918     0.008942
                              0.632430     0.141009
                              0.079053     0.945364
   15.1 A     2  2pz          2.324918     0.008942
                              0.632430     0.141009
                              0.079053     0.945364
   16.1 A     2  2px          0.035962     1.000000
   17.1 A     2  2py          0.035962     1.000000
   18.1 A     2  2pz          0.035962     1.000000

 NUCLEAR CHARGE:                    6
 NUMBER OF PRIMITIVE AOS:          44
 NUMBER OF SYMMETRY AOS:           44
 NUMBER OF CONTRACTIONS:           18   (   18A   )
 NUMBER OF CORE ORBITALS:           2   (    2A   )
 NUMBER OF VALENCE ORBITALS:        8   (    8A   )


 NUCLEAR REPULSION ENERGY    1.80000000

 EXTRA SYMMETRY OF AOS IN SYMMETRY 1:   1 1 1 2 3 1 2 3 1 1   1 1 2 3 1 2 3 1

 Eigenvalues of metric

         1 0.422E-02 0.103E+00 0.108E+00 0.108E+00 0.112E+00 0.166E+00 0.180E+00 0.252E+00


 Contracted 2-electron integrals neglected if value below      1.0D-11
 AO integral compression algorithm  1   Integral accuracy      1.0D-11

     0.262 MB (compressed) written to integral file ( 49.2%)


 NUMBER OF SORTED TWO-ELECTRON INTEGRALS:      14706.     BUFFER LENGTH:  32768
 NUMBER OF SEGMENTS:   1  SEGMENT LENGTH:      14706      RECORD LENGTH: 524288

 Memory used in sort:       0.57 MW

 SORT1 READ       26487. AND WROTE        4350. INTEGRALS IN      1 RECORDS. CPU TIME:     0.00 SEC, REAL TIME:     0.00 SEC
 SORT2 READ        4350. AND WROTE       14706. INTEGRALS IN      1 RECORDS. CPU TIME:     0.01 SEC, REAL TIME:     0.01 SEC

 FILE SIZES:   FILE 1:    30.2 MBYTE,  FILE 4:     4.2 MBYTE,   TOTAL:     34.4 MBYTE

 OPERATOR DM      FOR CENTER  0  COORDINATES:    0.000000    0.000000    0.000000


 **********************************************************************************************************************************
 DATASETS  * FILE   NREC   LENGTH (MB)   RECORD NAMES
              1      19       29.99       500      700      610      900      950      970     1000      129      960     1100   
                                          VAR     GEOM    BASINP   SYMINP    ZMAT    AOBASIS   BASIS     P2S    ABASIS      S 
                                         1400     1410     1200     1210     1080     1600     1650     1300     1700   
                                           T        V       H0       H01     AOSYM     SMH    MOLCAS    ERIS     OPER   

              3       5       14.77       500      610      700     1000     2100   
                                          VAR    BASINP    GEOM     BASIS     RHF  

 PROGRAMS   *        TOTAL       INT   RESTART
 CPU TIMES  *         0.31      0.20      0.01
 REAL TIME  *         0.45 SEC
 DISK USED  *        49.44 MB
 **********************************************************************************************************************************


 PROGRAM * CISD (Closed-shell CI(SD))     Authors: C. Hampel, H.-J. Werner, 1991, M. Deegan, P.J. Knowles, 1992


 Input parameters for THRESH:

 ENERGY   =    1.00D-10
 COEFF    =    1.00D-12
 PRINTCI  =    0.000000
 THRPRINT =    0.000000

 Convergence thresholds:  THRVAR = 1.00D-24  THRDEN = 1.00D-10

 Number of core orbitals:           2 (   2 )
 Number of closed-shell orbitals:   1 (   1 )
 Number of external orbitals:      15 (  15 )

 Molecular orbitals read from record     2100.3  Type=RHF/CANONICAL (state 1.1)

 Number of N-1 electron functions:               1
 Number of N-2 electron functions:               1
 Number of singly external CSFs:                15
 Number of doubly external CSFs:               120
 Total number of CSFs:                         136

 Length of J-op  integral file:               0.00 MB
 Length of K-op  integral file:               0.05 MB

 Integral transformation finished. Total CPU:   0.01 sec, npass=  1  Memory used:   0.07 MW

 Reference energy:                    -14.86544674

 MP2 singlet pair energy:              -0.01556723
 MP2 triplet pair energy:               0.00000000
 MP2 correlation energy:               -0.01556723
 MP2 total energy:                    -14.88101397

 SCS-MP2 correlation energy:           -0.01868068   (PS=  1.200000  PT=  0.333333)
 SCS-MP2 total energy:                -14.88412742

 ITER.      SQ.NORM     CORR.ENERGY   TOTAL ENERGY   ENERGY CHANGE        DEN1      VAR(S)    VAR(P)  DIIS     TIME  TIME/IT
   1      1.04772146    -0.02350521   -14.88895195    -0.00793798    -0.00434599  0.11D-03  0.28D-02  1  1     0.01     0.00
   2      1.08505065    -0.02483037   -14.89027711    -0.00132516    -0.00578427  0.17D-04  0.20D-03  2  2     0.01     0.00
   3      1.10314003    -0.02693949   -14.89238623    -0.00210912    -0.00184891  0.30D-05  0.21D-04  3  3     0.01     0.00
   4      1.09974954    -0.02715827   -14.89260501    -0.00021877     0.00052104  0.33D-06  0.23D-05  4  4     0.02     0.00
   5      1.10104742    -0.02716916   -14.89261590    -0.00001090    -0.00012560  0.40D-07  0.23D-06  5  5     0.02     0.00
   6      1.10129084    -0.02717132   -14.89261806    -0.00000216    -0.00002534  0.13D-07  0.28D-07  6  6     0.02     0.00
   7      1.10130994    -0.02717155   -14.89261829    -0.00000022    -0.00000001  0.12D-08  0.20D-08  6  1     0.02     0.00
   8      1.10126938    -0.02717158   -14.89261832    -0.00000003     0.00000412  0.46D-09  0.55D-09  6  2     0.02     0.00
   9      1.10126010    -0.02717158   -14.89261832    -0.00000000     0.00000087  0.16D-10  0.37D-10  6  5     0.03     0.00
  10      1.10126280    -0.02717158   -14.89261832    -0.00000000    -0.00000034  0.73D-11  0.80D-11  6  3     0.03     0.00
  11      1.10126198    -0.02717158   -14.89261832    -0.00000000     0.00000004  0.19D-11  0.11D-11  6  4     0.03     0.00
  12      1.10126143    -0.02717158   -14.89261832    -0.00000000     0.00000004  0.39D-13  0.20D-12  6  1     0.03     0.00
  13      1.10126143    -0.02717158   -14.89261832    -0.00000000    -0.00000000  0.94D-14  0.74D-13  6  6     0.03     0.00
  14      1.10126143    -0.02717158   -14.89261832    -0.00000000    -0.00000000  0.14D-14  0.12D-13  6  2     0.04     0.00
  15      1.10126140    -0.02717158   -14.89261832    -0.00000000     0.00000000  0.22D-16  0.54D-15  6  5     0.04     0.00
  16      1.10126141    -0.02717158   -14.89261832    -0.00000000    -0.00000000  0.14D-16  0.12D-15  6  3     0.04     0.00
  17      1.10126141    -0.02717158   -14.89261832     0.00000000    -0.00000000  0.14D-17  0.17D-16  6  4     0.04     0.00
  18      1.10126140    -0.02717158   -14.89261832    -0.00000000     0.00000000  0.79D-18  0.26D-17  6  1     0.05     0.00
  19      1.10126140    -0.02717158   -14.89261832     0.00000000     0.00000000  0.46D-18  0.14D-18  6  6     0.05     0.00
  20      1.10126140    -0.02717158   -14.89261832     0.00000000    -0.00000000  0.84D-19  0.39D-19  6  2     0.05     0.00
  21      1.10126140    -0.02717158   -14.89261832     0.00000000    -0.00000000  0.20D-19  0.23D-19  6  5     0.05     0.00
  22      1.10126140    -0.02717158   -14.89261832     0.00000000    -0.00000000  0.91D-22  0.55D-20  6  3     0.05     0.00
  23      1.10126140    -0.02717158   -14.89261832     0.00000000     0.00000000  0.56D-22  0.54D-21  6  4     0.05     0.00
  24      1.10126140    -0.02717158   -14.89261832     0.00000000     0.00000000  0.19D-22  0.16D-21  6  1     0.05     0.00
  25      1.10126140    -0.02717158   -14.89261832     0.00000000     0.00000000  0.28D-23  0.30D-22  6  6     0.06     0.00
  26      1.10126140    -0.02717158   -14.89261832     0.00000000    -0.00000000  0.19D-25  0.88D-23  6  2     0.06     0.00
  27      1.10126140    -0.02717158   -14.89261832     0.00000000    -0.00000000  0.27D-24  0.46D-24  6  5     0.06     0.00


 ! DIPOLE MOMENTS:                      0.00000000     0.00000000     0.00000000



 Norm of t1 vector:      0.03631619      S-energy:    -0.00003254      T1 diagnostic:  0.01815809

 Singles amplitudes (print threshold =  0.000E+00):

         I         SYM. A    A   T(IA)

         1         1         1     -0.00000000
         1         1         2      0.00000000
         1         1         3      0.00000000
         1         1         4     -0.01680877
         1         1         5     -0.00000000
         1         1         6      0.00000000
         1         1         7      0.00000000
         1         1         8      0.00883505
         1         1         9      0.00000000
         1         1        10      0.00000000
         1         1        11      0.01728699
         1         1        12     -0.00000000
         1         1        13     -0.00000000
         1         1        14     -0.00000000
         1         1        15      0.00000000

 Doubles amplitudes (print threshold =  0.000E+00):

         I         J         SYM. A    SYM. B    A         B      T(IJ, AB)

         1         1         1         1         1         1     -0.10488284
         1         1         1         1         1         2      0.00000000
         1         1         1         1         1         3      0.00000000
         1         1         1         1         1         4     -0.00000000
         1         1         1         1         1         5     -0.00000000
         1         1         1         1         1         6     -0.00000000
         1         1         1         1         1         7      0.06201369
         1         1         1         1         1         8     -0.00000000
         1         1         1         1         1         9     -0.00000000
         1         1         1         1         1        10      0.00000000
         1         1         1         1         1        11      0.00000000
         1         1         1         1         1        12     -0.00401347
         1         1         1         1         1        13     -0.00000000
         1         1         1         1         1        14      0.00000000
         1         1         1         1         1        15      0.02556298
         1         1         1         1         2         1      0.00000000
         1         1         1         1         2         2     -0.14314936
         1         1         1         1         2         3      0.00000000
         1         1         1         1         2         4      0.00000000
         1         1         1         1         2         5     -0.00000000
         1         1         1         1         2         6     -0.00000000
         1         1         1         1         2         7      0.00000000
         1         1         1         1         2         8      0.00000000
         1         1         1         1         2         9     -0.03484000
         1         1         1         1         2        10     -0.06016591
         1         1         1         1         2        11      0.00000000
         1         1         1         1         2        12     -0.00000000
         1         1         1         1         2        13     -0.00000000
         1         1         1         1         2        14     -0.00000000
         1         1         1         1         2        15     -0.00000000
         1         1         1         1         3         1      0.00000000
         1         1         1         1         3         2      0.00000000
         1         1         1         1         3         3     -0.14314936
         1         1         1         1         3         4      0.00000000
         1         1         1         1         3         5      0.00000000
         1         1         1         1         3         6     -0.00000000
         1         1         1         1         3         7     -0.00000000
         1         1         1         1         3         8      0.00000000
         1         1         1         1         3         9      0.06016591
         1         1         1         1         3        10     -0.03484000
         1         1         1         1         3        11      0.00000000
         1         1         1         1         3        12     -0.00000000
         1         1         1         1         3        13     -0.00000000
         1         1         1         1         3        14      0.00000000
         1         1         1         1         3        15     -0.00000000
         1         1         1         1         4         1     -0.00000000
         1         1         1         1         4         2      0.00000000
         1         1         1         1         4         3      0.00000000
         1         1         1         1         4         4     -0.07058647
         1         1         1         1         4         5     -0.00000000
         1         1         1         1         4         6     -0.00000000
         1         1         1         1         4         7      0.00000000
         1         1         1         1         4         8      0.05685742
         1         1         1         1         4         9     -0.00000000
         1         1         1         1         4        10      0.00000000
         1         1         1         1         4        11      0.00141999
         1         1         1         1         4        12      0.00000000
         1         1         1         1         4        13     -0.00000000
         1         1         1         1         4        14     -0.00000000
         1         1         1         1         4        15      0.00000000
         1         1         1         1         5         1     -0.00000000
         1         1         1         1         5         2     -0.00000000
         1         1         1         1         5         3      0.00000000
         1         1         1         1         5         4     -0.00000000
         1         1         1         1         5         5      0.00085841
         1         1         1         1         5         6      0.00000000
         1         1         1         1         5         7      0.00000000
         1         1         1         1         5         8      0.00000000
         1         1         1         1         5         9      0.00000000
         1         1         1         1         5        10      0.00000000
         1         1         1         1         5        11     -0.00000000
         1         1         1         1         5        12     -0.00000000
         1         1         1         1         5        13      0.00003328
         1         1         1         1         5        14     -0.00096175
         1         1         1         1         5        15      0.00000000
         1         1         1         1         6         1     -0.00000000
         1         1         1         1         6         2     -0.00000000
         1         1         1         1         6         3     -0.00000000
         1         1         1         1         6         4     -0.00000000
         1         1         1         1         6         5      0.00000000
         1         1         1         1         6         6      0.00085841
         1         1         1         1         6         7      0.00000000
         1         1         1         1         6         8     -0.00000000
         1         1         1         1         6         9     -0.00000000
         1         1         1         1         6        10      0.00000000
         1         1         1         1         6        11     -0.00000000
         1         1         1         1         6        12     -0.00000000
         1         1         1         1         6        13     -0.00096175
         1         1         1         1         6        14     -0.00003328
         1         1         1         1         6        15     -0.00000000
         1         1         1         1         7         1      0.06201369
         1         1         1         1         7         2      0.00000000
         1         1         1         1         7         3     -0.00000000
         1         1         1         1         7         4      0.00000000
         1         1         1         1         7         5      0.00000000
         1         1         1         1         7         6      0.00000000
         1         1         1         1         7         7     -0.03954371
         1         1         1         1         7         8      0.00000000
         1         1         1         1         7         9      0.00000000
         1         1         1         1         7        10      0.00000000
         1         1         1         1         7        11      0.00000000
         1         1         1         1         7        12      0.00233390
         1         1         1         1         7        13      0.00000000
         1         1         1         1         7        14      0.00000000
         1         1         1         1         7        15     -0.01827982
         1         1         1         1         8         1     -0.00000000
         1         1         1         1         8         2      0.00000000
         1         1         1         1         8         3      0.00000000
         1         1         1         1         8         4      0.05685742
         1         1         1         1         8         5      0.00000000
         1         1         1         1         8         6     -0.00000000
         1         1         1         1         8         7     -0.00000000
         1         1         1         1         8         8     -0.05456897
         1         1         1         1         8         9     -0.00000000
         1         1         1         1         8        10      0.00000000
         1         1         1         1         8        11      0.00314258
         1         1         1         1         8        12     -0.00000000
         1         1         1         1         8        13      0.00000000
         1         1         1         1         8        14      0.00000000
         1         1         1         1         8        15      0.00000000
         1         1         1         1         9         1     -0.00000000
         1         1         1         1         9         2     -0.03484000
         1         1         1         1         9         3      0.06016591
         1         1         1         1         9         4     -0.00000000
         1         1         1         1         9         5      0.00000000
         1         1         1         1         9         6     -0.00000000
         1         1         1         1         9         7      0.00000000
         1         1         1         1         9         8     -0.00000000
         1         1         1         1         9         9     -0.03689416
         1         1         1         1         9        10      0.00000000
         1         1         1         1         9        11      0.00000000
         1         1         1         1         9        12      0.00000000
         1         1         1         1         9        13     -0.00000000
         1         1         1         1         9        14      0.00000000
         1         1         1         1         9        15      0.00000000
         1         1         1         1        10         1      0.00000000
         1         1         1         1        10         2     -0.06016591
         1         1         1         1        10         3     -0.03484000
         1         1         1         1        10         4      0.00000000
         1         1         1         1        10         5      0.00000000
         1         1         1         1        10         6      0.00000000
         1         1         1         1        10         7      0.00000000
         1         1         1         1        10         8      0.00000000
         1         1         1         1        10         9      0.00000000
         1         1         1         1        10        10     -0.03689416
         1         1         1         1        10        11      0.00000000
         1         1         1         1        10        12     -0.00000000
         1         1         1         1        10        13      0.00000000
         1         1         1         1        10        14      0.00000000
         1         1         1         1        10        15     -0.00000000
         1         1         1         1        11         1      0.00000000
         1         1         1         1        11         2      0.00000000
         1         1         1         1        11         3      0.00000000
         1         1         1         1        11         4      0.00141999
         1         1         1         1        11         5     -0.00000000
         1         1         1         1        11         6     -0.00000000
         1         1         1         1        11         7      0.00000000
         1         1         1         1        11         8      0.00314258
         1         1         1         1        11         9      0.00000000
         1         1         1         1        11        10      0.00000000
         1         1         1         1        11        11     -0.00402738
         1         1         1         1        11        12     -0.00000000
         1         1         1         1        11        13     -0.00000000
         1         1         1         1        11        14     -0.00000000
         1         1         1         1        11        15      0.00000000
         1         1         1         1        12         1     -0.00401347
         1         1         1         1        12         2     -0.00000000
         1         1         1         1        12         3     -0.00000000
         1         1         1         1        12         4      0.00000000
         1         1         1         1        12         5     -0.00000000
         1         1         1         1        12         6     -0.00000000
         1         1         1         1        12         7      0.00233390
         1         1         1         1        12         8     -0.00000000
         1         1         1         1        12         9      0.00000000
         1         1         1         1        12        10     -0.00000000
         1         1         1         1        12        11     -0.00000000
         1         1         1         1        12        12      0.00003434
         1         1         1         1        12        13     -0.00000000
         1         1         1         1        12        14     -0.00000000
         1         1         1         1        12        15      0.00109453
         1         1         1         1        13         1     -0.00000000
         1         1         1         1        13         2     -0.00000000
         1         1         1         1        13         3     -0.00000000
         1         1         1         1        13         4     -0.00000000
         1         1         1         1        13         5      0.00003328
         1         1         1         1        13         6     -0.00096175
         1         1         1         1        13         7      0.00000000
         1         1         1         1        13         8      0.00000000
         1         1         1         1        13         9     -0.00000000
         1         1         1         1        13        10      0.00000000
         1         1         1         1        13        11     -0.00000000
         1         1         1         1        13        12     -0.00000000
         1         1         1         1        13        13     -0.00312530
         1         1         1         1        13        14      0.00000000
         1         1         1         1        13        15      0.00000000
         1         1         1         1        14         1      0.00000000
         1         1         1         1        14         2     -0.00000000
         1         1         1         1        14         3      0.00000000
         1         1         1         1        14         4     -0.00000000
         1         1         1         1        14         5     -0.00096175
         1         1         1         1        14         6     -0.00003328
         1         1         1         1        14         7      0.00000000
         1         1         1         1        14         8      0.00000000
         1         1         1         1        14         9      0.00000000
         1         1         1         1        14        10      0.00000000
         1         1         1         1        14        11     -0.00000000
         1         1         1         1        14        12     -0.00000000
         1         1         1         1        14        13      0.00000000
         1         1         1         1        14        14     -0.00312530
         1         1         1         1        14        15      0.00000000
         1         1         1         1        15         1      0.02556298
         1         1         1         1        15         2     -0.00000000
         1         1         1         1        15         3     -0.00000000
         1         1         1         1        15         4      0.00000000
         1         1         1         1        15         5      0.00000000
         1         1         1         1        15         6     -0.00000000
         1         1         1         1        15         7     -0.01827982
         1         1         1         1        15         8      0.00000000
         1         1         1         1        15         9      0.00000000
         1         1         1         1        15        10     -0.00000000
         1         1         1         1        15        11      0.00000000
         1         1         1         1        15        12      0.00109453
         1         1         1         1        15        13      0.00000000
         1         1         1         1        15        14      0.00000000
         1         1         1         1        15        15     -0.01161589


 RESULTS
 =======

  Reference energy                    -14.865446739065
  CISD singlet pair energy             -0.027139040194
  CISD triplet pair energy              0.000000000000
  CISD correlation energy              -0.027171580730

 !CISD total energy                   -14.892618319795

 Timing summary (sec):

 STEP                 CPU(USER)    SYS     CPU(TOT)    WALL
 Transformation          0.01      0.00      0.01      0.01
 CCSD iterations         0.05      0.02      0.07      0.08

 Program statistics:

 Available memory in ccsd:                39999196
 Min. memory needed in ccsd:                  4429
 Max. memory used in ccsd:                    4429
 Max. memory used in cckext:                 34964 (27 integral passes)



 **********************************************************************************************************************************
 DATASETS  * FILE   NREC   LENGTH (MB)   RECORD NAMES
              1      20       30.00       500      700      610      900      950      970     1000      129      960     1100   
                                          VAR     GEOM    BASINP   SYMINP    ZMAT    AOBASIS   BASIS     P2S    ABASIS      S 
                                         1400     1410     1200     1210     1080     1600     1650     1300     1700     1380   
                                           T        V       H0       H01     AOSYM     SMH    MOLCAS    ERIS     OPER     JKOP   

              3       5       14.77       500      610      700     1000     2100   
                                          VAR    BASINP    GEOM     BASIS     RHF  

 PROGRAMS   *        TOTAL      CISD       INT   RESTART
 CPU TIMES  *         0.43      0.12      0.20      0.01
 REAL TIME  *         0.60 SEC
 DISK USED  *        49.44 MB
 **********************************************************************************************************************************
 Molecular orbitals read from record     2100.3  Type=RHF/CANONICAL (state 1.1)
 Occupation numbers read from record     2100.3  Type=RHF/RHF (state 1.1)
 Orbital energies read from record       2100.3  Type=RHF/CANONICAL (state 1.1)
 Redundancy group numbers read from rec  2100.3  Type=RHF/RHF (state 1.1)

 CISD/6-31G energy=    -14.892618319795

            CISD
    -14.89261832
 **********************************************************************************************************************************
 Molpro calculation terminated
