
 Primary working directories    : /scr/yuriaoto/job.022406/molpro.dazkvud9zq
 Secondary working directories  : /scr/yuriaoto/job.022406/molpro.dazkvud9zq
 Wavefunction directory         : /scr/yuriaoto/job.022406/
 Main file repository           : /scr/yuriaoto/job.022406/molpro.dazkvud9zq/

 id        : yuriaoto

 Nodes             nprocs
 t-rex.ufabc.int.br    1

 Using customized tuning parameters: mindgm=8; mindgv=16; mindgc=1; mindgr=1; noblas=0; minvec=7
 default implementation of scratch files=df  


 Variables initialized (933), CPU time= 0.00 sec
 ***,
 memory,40,m
 gprint,orbital=15,basis
 gthresh,thrprint=0
 file,3,wfu.dat,new
 
 r = 5.0
 basis = 6-31g
 
 nosym
 geom={Li1;Li2,Li1,r}
 
 {rhf
 wf,6,1,0
 orbital,2100.3
 }
 
 {put,xml,orbitals.xml; nosort; novariables}
 
 Commands  initialized (760), CPU time= 0.01 sec, 617 directives.
 Default parameters read. Elapsed time= 0.05 sec

 Checking input...
 Passed
1


                                         ***  PROGRAM SYSTEM MOLPRO  ***
                                       Copyright, TTI GmbH Stuttgart, 2015
                                    Version 2019.2 linked Abr  7 2019 15:10:35


 **********************************************************************************************************************************
 LABEL *                                                                                 
  64 bit serial version                                                                  DATE: 21-Oct-19          TIME: 10:34:13  
 **********************************************************************************************************************************

 SHA1:             3a8a58c585c929645742fb5a1b7541a4ad1da699
 **********************************************************************************************************************************


 THRESHOLDS:

 ZERO    =  1.00D-12  ONEINT  =  1.00D-12  TWOINT  =  1.00D-11  PREFAC  =  1.00D-14  XXXXXX  =  1.00D-09  EORDER  =  1.00D-04
 ENERGY  =  0.00D+00  ETEST   =  0.00D+00  EDENS   =  0.00D+00  THRDEDEF=  1.00D-06  GRADIENT=  1.00D-02  STEP    =  1.00D-03
 ORBITAL =  1.00D-05  CIVEC   =  1.00D-05  COEFF   =  1.00D-04  PRINTCI =  5.00D-02  PUNCHCI =  9.90D+01  OPTGRAD =  3.00D-04
 OPTENERG=  1.00D-06  OPTSTEP =  3.00D-04  THRGRAD =  1.00D-10  COMPRESS=  1.00D-11  VARMIN  =  1.00D-07  VARMAX  =  1.00D-03
 THRDOUB =  0.00D+00  THRDIV  =  1.00D-05  THRRED  =  1.00D-07  THRPSP  =  1.00D+00  THRDC   =  1.00D-10  THRCS   =  1.00D-10
 THRNRM  =  1.00D-08  THREQ   =  0.00D+00  THRDE   =  1.00D+00  THRREF  =  1.00D-05  SPARFAC =  1.00D+00  THRDLP  =  1.00D-07
 THRDIA  =  1.00D-10  THRDLS  =  1.00D-07  THRGPS  =  0.00D+00  THRKEX  =  0.00D+00  THRDIS  =  2.00D-01  THRVAR  =  1.00D-10
 THRLOC  =  1.00D-06  THRGAP  =  1.00D-06  THRLOCT = -1.00D+00  THRGAPT = -1.00D+00  THRORB  =  1.00D-06  THRMLTP =  0.00D+00
 THRCPQCI=  1.00D-10  KEXTA   =  0.00D+00  THRCOARS=  0.00D+00  SYMTOL  =  1.00D-06  GRADTOL =  1.00D-06  THROVL  =  1.00D-08
 THRORTH =  1.00D-08  GRID    =  1.00D-06  GRIDMAX =  1.00D-03  DTMAX   =  0.00D+00  THROCCDE=  1.00D-01  THROCCDE=  1.00D-01
 THRPRINT=  0.00D+00


 Variable memory set to   40000000 words,  buffer space 



 Permanent file  3  wfu.dat  assigned.  Implementation=df  



 **********************************************************************************************************************************
 DATASETS  * FILE   NREC   LENGTH (MB)   RECORD NAMES
              3       1        0.03       500   
                                          VAR  

 PROGRAMS   *        TOTAL      FILE
 CPU TIMES  *         0.11      0.00
 REAL TIME  *         0.11 SEC
 DISK USED  *         0.09 MB
 **********************************************************************************************************************************
 SETTING R              =         5.00000000                                  
 SETTING BASIS          =    6-31G
 ZSYMEL=NOSYM



 Recomputing integrals since basis changed


 Using spherical harmonics

 Library entry LI     S 6-31G                selected for orbital group  1
 Library entry LI     P 6-31G                selected for orbital group  1


 PROGRAM * SEWARD (Integral evaluation for generally contracted gaussian basis sets)     Author: Roland Lindh, 1990

 Geometry written to block  1 of record 700

 Orientation using atomic masses  
 Molecule type: Linear
 Rotational constants:      20.8009354     20.8009354      0.0000000 GHz  (calculated with average atomic masses)

 Point group  C1  



 ATOMIC COORDINATES

 NR  ATOM    CHARGE       X              Y              Z

   1  LI1     3.00    0.000000000    0.000000000   -2.500000000
   2  LI2     3.00    0.000000000    0.000000000    2.500000000

 Bond lengths in Bohr (Angstrom)

 1-2  5.000000000
     ( 2.645886055)


 BASIS DATA

   Nr Sym  Nuc  Type         Exponents   Contraction coefficients

    1.1 A     1  1s         642.418910     0.002143
                             96.798515     0.016209
                             22.091121     0.077316
                              6.201070     0.245786
                              1.935118     0.470189
                              0.636736     0.345471
    2.1 A     1  1s           2.324918    -0.035092
                              0.632430    -0.191233
                              0.079053     1.083988
    3.1 A     1  1s           0.035962     1.000000
    4.1 A     1  2px          2.324918     0.008942
                              0.632430     0.141009
                              0.079053     0.945364
    5.1 A     1  2py          2.324918     0.008942
                              0.632430     0.141009
                              0.079053     0.945364
    6.1 A     1  2pz          2.324918     0.008942
                              0.632430     0.141009
                              0.079053     0.945364
    7.1 A     1  2px          0.035962     1.000000
    8.1 A     1  2py          0.035962     1.000000
    9.1 A     1  2pz          0.035962     1.000000
   10.1 A     2  1s         642.418910     0.002143
                             96.798515     0.016209
                             22.091121     0.077316
                              6.201070     0.245786
                              1.935118     0.470189
                              0.636736     0.345471
   11.1 A     2  1s           2.324918    -0.035092
                              0.632430    -0.191233
                              0.079053     1.083988
   12.1 A     2  1s           0.035962     1.000000
   13.1 A     2  2px          2.324918     0.008942
                              0.632430     0.141009
                              0.079053     0.945364
   14.1 A     2  2py          2.324918     0.008942
                              0.632430     0.141009
                              0.079053     0.945364
   15.1 A     2  2pz          2.324918     0.008942
                              0.632430     0.141009
                              0.079053     0.945364
   16.1 A     2  2px          0.035962     1.000000
   17.1 A     2  2py          0.035962     1.000000
   18.1 A     2  2pz          0.035962     1.000000

 NUCLEAR CHARGE:                    6
 NUMBER OF PRIMITIVE AOS:          44
 NUMBER OF SYMMETRY AOS:           44
 NUMBER OF CONTRACTIONS:           18   (   18A   )
 NUMBER OF CORE ORBITALS:           2   (    2A   )
 NUMBER OF VALENCE ORBITALS:        8   (    8A   )


 NUCLEAR REPULSION ENERGY    1.80000000

 EXTRA SYMMETRY OF AOS IN SYMMETRY 1:   1 1 1 2 3 1 2 3 1 1   1 1 2 3 1 2 3 1

 Eigenvalues of metric

         1 0.422E-02 0.103E+00 0.108E+00 0.108E+00 0.112E+00 0.166E+00 0.180E+00 0.252E+00


 Contracted 2-electron integrals neglected if value below      1.0D-11
 AO integral compression algorithm  1   Integral accuracy      1.0D-11

     0.262 MB (compressed) written to integral file ( 49.2%)


 NUMBER OF SORTED TWO-ELECTRON INTEGRALS:      14706.     BUFFER LENGTH:  32768
 NUMBER OF SEGMENTS:   1  SEGMENT LENGTH:      14706      RECORD LENGTH: 524288

 Memory used in sort:       0.57 MW

 SORT1 READ       26487. AND WROTE        4350. INTEGRALS IN      1 RECORDS. CPU TIME:     0.00 SEC, REAL TIME:     0.00 SEC
 SORT2 READ        4350. AND WROTE       14706. INTEGRALS IN      1 RECORDS. CPU TIME:     0.01 SEC, REAL TIME:     0.01 SEC

 FILE SIZES:   FILE 1:    30.2 MBYTE,  FILE 4:     4.2 MBYTE,   TOTAL:     34.4 MBYTE

 OPERATOR DM      FOR CENTER  0  COORDINATES:    0.000000    0.000000    0.000000


 **********************************************************************************************************************************
 DATASETS  * FILE   NREC   LENGTH (MB)   RECORD NAMES
              1      19       29.99       500      610      700      900      950      970     1000      129      960     1100   
                                          VAR    BASINP    GEOM    SYMINP    ZMAT    AOBASIS   BASIS     P2S    ABASIS      S 
                                         1400     1410     1200     1210     1080     1600     1650     1300     1700   
                                           T        V       H0       H01     AOSYM     SMH    MOLCAS    ERIS     OPER   

              3       4       12.28       500      610      700     1000   
                                          VAR    BASINP    GEOM     BASIS   

 PROGRAMS   *        TOTAL       INT      FILE
 CPU TIMES  *         0.26      0.15      0.00
 REAL TIME  *         0.44 SEC
 DISK USED  *        46.95 MB
 **********************************************************************************************************************************


 PROGRAM * RHF-SCF (CLOSED SHELL)       Authors: W. Meyer, H.-J. Werner


 NUMBER OF ELECTRONS:       3+    3-    SPACE SYMMETRY=1    SPIN SYMMETRY: Singlet 
 CONVERGENCE THRESHOLDS:    1.00E-05 (Density)    1.00E-07 (Energy)
 MAX. NUMBER OF ITERATIONS:       60
 INTERPOLATION TYPE:            DIIS
 INTERPOLATION STEPS:              2 (START)      1 (STEP)
 LEVEL SHIFTS:                  0.00 (CLOSED)  0.00 (OPEN) 




   Atom=LI basis=MINAO             lmin=0  lmax=0

 Orbital guess generated from atomic densities. Full valence occupancy:    3

 Molecular orbital dump at record        2100.3

 Initial occupancy:   3

 ITERATION    DDIFF          GRAD             ENERGY        2-EL.EN.            DIPOLE MOMENTS         DIIS   ORB.
    1      0.000D+00      0.000D+00       -14.86436106     12.993338    0.00000   -0.00000   -0.00000    0    start
    2      0.000D+00      0.197D-02       -14.86527967     13.057731    0.00000   -0.00000   -0.00000    1    diag
    3      0.430D-02      0.684D-03       -14.86544283     13.089945    0.00000   -0.00000   -0.00000    2    diag
    4      0.201D-02      0.890D-04       -14.86544667     13.091761    0.00000    0.00000   -0.00000    3    diag
    5      0.456D-03      0.128D-04       -14.86544674     13.091534    0.00000    0.00000   -0.00000    4    diag
    6      0.906D-04      0.134D-05       -14.86544674     13.091523    0.00000    0.00000   -0.00000    5    diag
    7      0.895D-05      0.218D-06       -14.86544674     13.091531    0.00000    0.00000   -0.00000    0    orth

 Final occupancy:   3

 !RHF STATE  1.1 Energy               -14.865446739065
 Nuclear energy                         1.80000000
 One-electron energy                  -23.21121219
 Two-electron energy                    6.54576546
 Virial quotient                       -0.99258396
 !RHF STATE  1.1 Dipole moment          0.00000000     0.00000000    -0.00000000
 Dipole moment /Debye                   0.00000000     0.00000000    -0.00000000

 MOLECULAR ORBITALS
 ==================

   Orb  Occ    Energy       Coefficients

                            1 1s      1 1s      1 1s      1 2px     1 2py     1 2pz     1 2px     1 2py     1 2pz     2 1s   
                            2 1s      2 1s      2 2px     2 2py     2 2pz     2 2px     2 2py     2 2pz  

   1.1   2    -2.4408     0.706182  0.011902 -0.005525 -0.000000 -0.000000 -0.001907  0.000000  0.000000  0.001246  0.706182
                          0.011902 -0.005525 -0.000000  0.000000  0.001907  0.000000 -0.000000 -0.001246

   2.1   2    -2.4405     0.706736  0.012279 -0.011378  0.000000  0.000000 -0.002850 -0.000000 -0.000000 -0.000827 -0.706736
                         -0.012279  0.011378  0.000000 -0.000000 -0.002850  0.000000  0.000000 -0.000827

   3.1   2    -0.1785    -0.151265  0.211035  0.352563 -0.000000  0.000000  0.113381  0.000000 -0.000000 -0.031924 -0.151265
                          0.211035  0.352563 -0.000000 -0.000000 -0.113381  0.000000  0.000000  0.031924

   4.1   0     0.0178     0.092917 -0.097188  0.407663  0.000000  0.000000  0.032783 -0.000000 -0.000000  0.842196 -0.092917
                          0.097188 -0.407663  0.000000 -0.000000  0.032783  0.000000  0.000000  0.842196

   5.1   0     0.0456    -0.000000 -0.000000 -0.000000  0.060315  0.029039 -0.000000  0.451501  0.217376 -0.000000  0.000000
                          0.000000  0.000000  0.060315  0.029039  0.000000  0.451501  0.217376 -0.000000

   6.1   0     0.0456    -0.000000 -0.000000  0.000000 -0.029039  0.060315 -0.000000 -0.217376  0.451501  0.000000  0.000000
                          0.000000 -0.000000 -0.029039  0.060315 -0.000000 -0.217376  0.451501  0.000000

   7.1   0     0.0635    -0.009342  0.154843 -0.505672  0.000000  0.000000  0.074833 -0.000000 -0.000000  0.715515 -0.009342
                          0.154843 -0.505672 -0.000000 -0.000000 -0.074833  0.000000  0.000000 -0.715515

   8.1   0     0.0925     0.000000  0.000000  0.000000 -0.050355  0.011422  0.000000  1.196925 -0.271487  0.000000 -0.000000
                          0.000000 -0.000000  0.050355 -0.011422 -0.000000 -1.196925  0.271487  0.000000

   9.1   0     0.0925    -0.000000  0.000000  0.000000 -0.011422 -0.050355  0.000000  0.271487  1.196925  0.000000 -0.000000
                          0.000000 -0.000000  0.011422  0.050355  0.000000 -0.271487 -1.196925  0.000000

  10.1   0     0.1397    -0.149921  0.017214  4.999187  0.000000 -0.000000 -0.301080  0.000000 -0.000000  3.020341  0.149921
                         -0.017214 -4.999187 -0.000000 -0.000000 -0.301080  0.000000 -0.000000  3.020341

  11.1   0     0.1942    -0.042326 -0.729355  0.499073 -0.000000 -0.000000 -0.860585  0.000000  0.000000  1.151808 -0.042326
                         -0.729355  0.499073 -0.000000 -0.000000  0.860585 -0.000000 -0.000000 -1.151808

  12.1   0     0.2082     0.000000  0.000000  0.000000  0.900214 -0.612194 -0.000000 -0.705276  0.479626  0.000000  0.000000
                         -0.000000  0.000000  0.900214 -0.612194 -0.000000 -0.705276  0.479626 -0.000000

  13.1   0     0.2082    -0.000000  0.000000  0.000000  0.612194  0.900214 -0.000000 -0.479626 -0.705276  0.000000  0.000000
                          0.000000 -0.000000  0.612194  0.900214  0.000000 -0.479626 -0.705276 -0.000000

  14.1   0     0.2254     0.062284  1.480109 -1.281966 -0.000000 -0.000000 -0.595771  0.000000  0.000000  0.345543  0.062284
                          1.480109 -1.281966 -0.000000 -0.000000  0.595771 -0.000000  0.000000 -0.345543

  15.1   0     0.2658    -0.095691 -1.182308  5.015622 -0.000000 -0.000000  1.115975  0.000000  0.000000  1.369140  0.095691
                          1.182308 -5.015622  0.000000  0.000000  1.115975 -0.000000 -0.000000  1.369140

  16.1   0     0.2705    -0.000000 -0.000000  0.000000  0.254436  1.334050  0.000000 -0.252982 -1.326425  0.000000  0.000000
                         -0.000000 -0.000000 -0.254436 -1.334050  0.000000  0.252982  1.326425  0.000000

  17.1   0     0.2705    -0.000000 -0.000000  0.000000  1.334050 -0.254436  0.000000 -1.326425  0.252982  0.000000 -0.000000
                          0.000000 -0.000000 -1.334050  0.254436  0.000000  1.326425 -0.252982  0.000000

  18.1   0     0.5481     0.210012  2.713123 -6.472111 -0.000000 -0.000000  1.605241  0.000000 -0.000000 -3.079691 -0.210012
                         -2.713123  6.472111  0.000000 -0.000000  1.605241 -0.000000 -0.000000 -3.079691


 HOMO      3.1    -0.178518 =      -4.8577eV
 LUMO      4.1     0.017772 =       0.4836eV
 LUMO-HOMO         0.196290 =       5.3413eV


 **********************************************************************************************************************************
 DATASETS  * FILE   NREC   LENGTH (MB)   RECORD NAMES
              1      19       29.99       500      610      700      900      950      970     1000      129      960     1100   
                                          VAR    BASINP    GEOM    SYMINP    ZMAT    AOBASIS   BASIS     P2S    ABASIS      S 
                                         1400     1410     1200     1210     1080     1600     1650     1300     1700   
                                           T        V       H0       H01     AOSYM     SMH    MOLCAS    ERIS     OPER   

              3       5       14.77       500      610      700     1000     2100   
                                          VAR    BASINP    GEOM     BASIS     RHF  

 PROGRAMS   *        TOTAL   RHF-SCF       INT      FILE
 CPU TIMES  *         0.39      0.13      0.15      0.00
 REAL TIME  *         0.59 SEC
 DISK USED  *        46.95 MB
 **********************************************************************************************************************************

 Dump information in style XML to orbitals.xml                                                                    

 Variables will not be exported.
 Molecular orbitals read from record     2100.3  Type=RHF/CANONICAL (state 1.1)
 Occupation numbers read from record     2100.3  Type=RHF/RHF (state 1.1)
 Orbital energies read from record       2100.3  Type=RHF/CANONICAL (state 1.1)
 Redundancy group numbers read from rec  2100.3  Type=RHF/RHF (state 1.1)

 **********************************************************************************************************************************

 RHF/6-31G energy=    -14.865446739065

         RHF-SCF
    -14.86544674
 **********************************************************************************************************************************
 Molpro calculation terminated
