
 Primary working directories    : /scr/yuriaoto/job.022407/molpro.dCpVSfqzo5
 Secondary working directories  : /scr/yuriaoto/job.022407/molpro.dCpVSfqzo5
 Wavefunction directory         : /scr/yuriaoto/job.022407/
 Main file repository           : /scr/yuriaoto/job.022407/molpro.dCpVSfqzo5/

 id        : yuriaoto

 Nodes             nprocs
 t-rex.ufabc.int.br    1

 Using customized tuning parameters: mindgm=8; mindgv=16; mindgc=1; mindgr=1; noblas=0; minvec=7
 default implementation of scratch files=df  


 Variables initialized (933), CPU time= 0.00 sec
 ***,
 memory,40,m
 gprint,orbital=15,basis
 gthresh,thrprint=0
 file,3,wfu.dat,new
 
 r = 5.0
 basis = 6-31g
 
 nosym
 geom={Li1;Li2,Li1,r}
 
 {rhf
 wf,6,1,0
 }
 
 {uhf
 rotate,1.1,2.1,45
 rotate,3.1,4.1,45
 wf,6,1,0
 orbital,2100.3
 }
 
 {put,xml,orbitals.xml; nosort; novariables}
 
 Commands  initialized (760), CPU time= 0.00 sec, 617 directives.
 Default parameters read. Elapsed time= 0.03 sec

 Checking input...
 Passed
1


                                         ***  PROGRAM SYSTEM MOLPRO  ***
                                       Copyright, TTI GmbH Stuttgart, 2015
                                    Version 2019.2 linked Abr  7 2019 15:10:35


 **********************************************************************************************************************************
 LABEL *                                                                                 
  64 bit serial version                                                                  DATE: 21-Oct-19          TIME: 10:34:17  
 **********************************************************************************************************************************

 SHA1:             3a8a58c585c929645742fb5a1b7541a4ad1da699
 **********************************************************************************************************************************


 THRESHOLDS:

 ZERO    =  1.00D-12  ONEINT  =  1.00D-12  TWOINT  =  1.00D-11  PREFAC  =  1.00D-14  XXXXXX  =  1.00D-09  EORDER  =  1.00D-04
 ENERGY  =  0.00D+00  ETEST   =  0.00D+00  EDENS   =  0.00D+00  THRDEDEF=  1.00D-06  GRADIENT=  1.00D-02  STEP    =  1.00D-03
 ORBITAL =  1.00D-05  CIVEC   =  1.00D-05  COEFF   =  1.00D-04  PRINTCI =  5.00D-02  PUNCHCI =  9.90D+01  OPTGRAD =  3.00D-04
 OPTENERG=  1.00D-06  OPTSTEP =  3.00D-04  THRGRAD =  1.00D-10  COMPRESS=  1.00D-11  VARMIN  =  1.00D-07  VARMAX  =  1.00D-03
 THRDOUB =  0.00D+00  THRDIV  =  1.00D-05  THRRED  =  1.00D-07  THRPSP  =  1.00D+00  THRDC   =  1.00D-10  THRCS   =  1.00D-10
 THRNRM  =  1.00D-08  THREQ   =  0.00D+00  THRDE   =  1.00D+00  THRREF  =  1.00D-05  SPARFAC =  1.00D+00  THRDLP  =  1.00D-07
 THRDIA  =  1.00D-10  THRDLS  =  1.00D-07  THRGPS  =  0.00D+00  THRKEX  =  0.00D+00  THRDIS  =  2.00D-01  THRVAR  =  1.00D-10
 THRLOC  =  1.00D-06  THRGAP  =  1.00D-06  THRLOCT = -1.00D+00  THRGAPT = -1.00D+00  THRORB  =  1.00D-06  THRMLTP =  0.00D+00
 THRCPQCI=  1.00D-10  KEXTA   =  0.00D+00  THRCOARS=  0.00D+00  SYMTOL  =  1.00D-06  GRADTOL =  1.00D-06  THROVL  =  1.00D-08
 THRORTH =  1.00D-08  GRID    =  1.00D-06  GRIDMAX =  1.00D-03  DTMAX   =  0.00D+00  THROCCDE=  1.00D-01  THROCCDE=  1.00D-01
 THRPRINT=  0.00D+00


 Variable memory set to   40000000 words,  buffer space 



 Permanent file  3  wfu.dat  assigned.  Implementation=df  



 **********************************************************************************************************************************
 DATASETS  * FILE   NREC   LENGTH (MB)   RECORD NAMES
              3       1        0.03       500   
                                          VAR  

 PROGRAMS   *        TOTAL      FILE
 CPU TIMES  *         0.09      0.01
 REAL TIME  *         0.09 SEC
 DISK USED  *         0.09 MB
 **********************************************************************************************************************************
 SETTING R              =         5.00000000                                  
 SETTING BASIS          =    6-31G
 ZSYMEL=NOSYM



 Recomputing integrals since basis changed


 Using spherical harmonics

 Library entry LI     S 6-31G                selected for orbital group  1
 Library entry LI     P 6-31G                selected for orbital group  1


 PROGRAM * SEWARD (Integral evaluation for generally contracted gaussian basis sets)     Author: Roland Lindh, 1990

 Geometry written to block  1 of record 700

 Orientation using atomic masses  
 Molecule type: Linear
 Rotational constants:      20.8009354     20.8009354      0.0000000 GHz  (calculated with average atomic masses)

 Point group  C1  



 ATOMIC COORDINATES

 NR  ATOM    CHARGE       X              Y              Z

   1  LI1     3.00    0.000000000    0.000000000   -2.500000000
   2  LI2     3.00    0.000000000    0.000000000    2.500000000

 Bond lengths in Bohr (Angstrom)

 1-2  5.000000000
     ( 2.645886055)


 BASIS DATA

   Nr Sym  Nuc  Type         Exponents   Contraction coefficients

    1.1 A     1  1s         642.418910     0.002143
                             96.798515     0.016209
                             22.091121     0.077316
                              6.201070     0.245786
                              1.935118     0.470189
                              0.636736     0.345471
    2.1 A     1  1s           2.324918    -0.035092
                              0.632430    -0.191233
                              0.079053     1.083988
    3.1 A     1  1s           0.035962     1.000000
    4.1 A     1  2px          2.324918     0.008942
                              0.632430     0.141009
                              0.079053     0.945364
    5.1 A     1  2py          2.324918     0.008942
                              0.632430     0.141009
                              0.079053     0.945364
    6.1 A     1  2pz          2.324918     0.008942
                              0.632430     0.141009
                              0.079053     0.945364
    7.1 A     1  2px          0.035962     1.000000
    8.1 A     1  2py          0.035962     1.000000
    9.1 A     1  2pz          0.035962     1.000000
   10.1 A     2  1s         642.418910     0.002143
                             96.798515     0.016209
                             22.091121     0.077316
                              6.201070     0.245786
                              1.935118     0.470189
                              0.636736     0.345471
   11.1 A     2  1s           2.324918    -0.035092
                              0.632430    -0.191233
                              0.079053     1.083988
   12.1 A     2  1s           0.035962     1.000000
   13.1 A     2  2px          2.324918     0.008942
                              0.632430     0.141009
                              0.079053     0.945364
   14.1 A     2  2py          2.324918     0.008942
                              0.632430     0.141009
                              0.079053     0.945364
   15.1 A     2  2pz          2.324918     0.008942
                              0.632430     0.141009
                              0.079053     0.945364
   16.1 A     2  2px          0.035962     1.000000
   17.1 A     2  2py          0.035962     1.000000
   18.1 A     2  2pz          0.035962     1.000000

 NUCLEAR CHARGE:                    6
 NUMBER OF PRIMITIVE AOS:          44
 NUMBER OF SYMMETRY AOS:           44
 NUMBER OF CONTRACTIONS:           18   (   18A   )
 NUMBER OF CORE ORBITALS:           2   (    2A   )
 NUMBER OF VALENCE ORBITALS:        8   (    8A   )


 NUCLEAR REPULSION ENERGY    1.80000000

 EXTRA SYMMETRY OF AOS IN SYMMETRY 1:   1 1 1 2 3 1 2 3 1 1   1 1 2 3 1 2 3 1

 Eigenvalues of metric

         1 0.422E-02 0.103E+00 0.108E+00 0.108E+00 0.112E+00 0.166E+00 0.180E+00 0.252E+00


 Contracted 2-electron integrals neglected if value below      1.0D-11
 AO integral compression algorithm  1   Integral accuracy      1.0D-11

     0.262 MB (compressed) written to integral file ( 49.2%)


 NUMBER OF SORTED TWO-ELECTRON INTEGRALS:      14706.     BUFFER LENGTH:  32768
 NUMBER OF SEGMENTS:   1  SEGMENT LENGTH:      14706      RECORD LENGTH: 524288

 Memory used in sort:       0.57 MW

 SORT1 READ       26487. AND WROTE        4350. INTEGRALS IN      1 RECORDS. CPU TIME:     0.00 SEC, REAL TIME:     0.00 SEC
 SORT2 READ        4350. AND WROTE       14706. INTEGRALS IN      1 RECORDS. CPU TIME:     0.01 SEC, REAL TIME:     0.01 SEC

 FILE SIZES:   FILE 1:    30.2 MBYTE,  FILE 4:     4.2 MBYTE,   TOTAL:     34.4 MBYTE

 OPERATOR DM      FOR CENTER  0  COORDINATES:    0.000000    0.000000    0.000000


 **********************************************************************************************************************************
 DATASETS  * FILE   NREC   LENGTH (MB)   RECORD NAMES
              1      19       29.99       500      610      700      900      950      970     1000      129      960     1100   
                                          VAR    BASINP    GEOM    SYMINP    ZMAT    AOBASIS   BASIS     P2S    ABASIS      S 
                                         1400     1410     1200     1210     1080     1600     1650     1300     1700   
                                           T        V       H0       H01     AOSYM     SMH    MOLCAS    ERIS     OPER   

              3       4       12.28       500      610      700     1000   
                                          VAR    BASINP    GEOM     BASIS   

 PROGRAMS   *        TOTAL       INT      FILE
 CPU TIMES  *         0.21      0.12      0.01
 REAL TIME  *         0.33 SEC
 DISK USED  *        46.95 MB
 **********************************************************************************************************************************


 PROGRAM * RHF-SCF (CLOSED SHELL)       Authors: W. Meyer, H.-J. Werner


 NUMBER OF ELECTRONS:       3+    3-    SPACE SYMMETRY=1    SPIN SYMMETRY: Singlet 
 CONVERGENCE THRESHOLDS:    1.00E-05 (Density)    1.00E-07 (Energy)
 MAX. NUMBER OF ITERATIONS:       60
 INTERPOLATION TYPE:            DIIS
 INTERPOLATION STEPS:              2 (START)      1 (STEP)
 LEVEL SHIFTS:                  0.00 (CLOSED)  0.00 (OPEN) 




   Atom=LI basis=MINAO             lmin=0  lmax=0

 Orbital guess generated from atomic densities. Full valence occupancy:    3

 Molecular orbital dump at record        2100.3

 Initial occupancy:   3

 ITERATION    DDIFF          GRAD             ENERGY        2-EL.EN.            DIPOLE MOMENTS         DIIS   ORB.
    1      0.000D+00      0.000D+00       -14.86436106     12.993338    0.00000   -0.00000   -0.00000    0    start
    2      0.000D+00      0.197D-02       -14.86527967     13.057731    0.00000   -0.00000   -0.00000    1    diag
    3      0.430D-02      0.684D-03       -14.86544283     13.089945    0.00000   -0.00000   -0.00000    2    diag
    4      0.201D-02      0.890D-04       -14.86544667     13.091761    0.00000    0.00000   -0.00000    3    diag
    5      0.456D-03      0.128D-04       -14.86544674     13.091534    0.00000    0.00000   -0.00000    4    diag
    6      0.906D-04      0.134D-05       -14.86544674     13.091523    0.00000    0.00000   -0.00000    5    diag
    7      0.895D-05      0.218D-06       -14.86544674     13.091531    0.00000    0.00000   -0.00000    0    orth

 Final occupancy:   3

 !RHF STATE  1.1 Energy               -14.865446739065
 Nuclear energy                         1.80000000
 One-electron energy                  -23.21121219
 Two-electron energy                    6.54576546
 Virial quotient                       -0.99258396
 !RHF STATE  1.1 Dipole moment          0.00000000     0.00000000    -0.00000000
 Dipole moment /Debye                   0.00000000     0.00000000    -0.00000000

 MOLECULAR ORBITALS
 ==================

   Orb  Occ    Energy       Coefficients

                            1 1s      1 1s      1 1s      1 2px     1 2py     1 2pz     1 2px     1 2py     1 2pz     2 1s   
                            2 1s      2 1s      2 2px     2 2py     2 2pz     2 2px     2 2py     2 2pz  

   1.1   2    -2.4408     0.706182  0.011902 -0.005525 -0.000000 -0.000000 -0.001907  0.000000  0.000000  0.001246  0.706182
                          0.011902 -0.005525 -0.000000  0.000000  0.001907  0.000000 -0.000000 -0.001246

   2.1   2    -2.4405     0.706736  0.012279 -0.011378  0.000000  0.000000 -0.002850 -0.000000 -0.000000 -0.000827 -0.706736
                         -0.012279  0.011378  0.000000 -0.000000 -0.002850  0.000000  0.000000 -0.000827

   3.1   2    -0.1785    -0.151265  0.211035  0.352563 -0.000000  0.000000  0.113381  0.000000 -0.000000 -0.031924 -0.151265
                          0.211035  0.352563 -0.000000 -0.000000 -0.113381  0.000000  0.000000  0.031924

   4.1   0     0.0178     0.092917 -0.097188  0.407663  0.000000  0.000000  0.032783 -0.000000 -0.000000  0.842196 -0.092917
                          0.097188 -0.407663  0.000000 -0.000000  0.032783  0.000000  0.000000  0.842196

   5.1   0     0.0456    -0.000000 -0.000000 -0.000000  0.060315  0.029039 -0.000000  0.451501  0.217376 -0.000000  0.000000
                          0.000000  0.000000  0.060315  0.029039  0.000000  0.451501  0.217376 -0.000000

   6.1   0     0.0456    -0.000000 -0.000000  0.000000 -0.029039  0.060315 -0.000000 -0.217376  0.451501  0.000000  0.000000
                          0.000000 -0.000000 -0.029039  0.060315 -0.000000 -0.217376  0.451501  0.000000

   7.1   0     0.0635    -0.009342  0.154843 -0.505672  0.000000  0.000000  0.074833 -0.000000 -0.000000  0.715515 -0.009342
                          0.154843 -0.505672 -0.000000 -0.000000 -0.074833  0.000000  0.000000 -0.715515

   8.1   0     0.0925     0.000000  0.000000  0.000000 -0.050355  0.011422  0.000000  1.196925 -0.271487  0.000000 -0.000000
                          0.000000 -0.000000  0.050355 -0.011422 -0.000000 -1.196925  0.271487  0.000000

   9.1   0     0.0925    -0.000000  0.000000  0.000000 -0.011422 -0.050355  0.000000  0.271487  1.196925  0.000000 -0.000000
                          0.000000 -0.000000  0.011422  0.050355  0.000000 -0.271487 -1.196925  0.000000

  10.1   0     0.1397    -0.149921  0.017214  4.999187  0.000000 -0.000000 -0.301080  0.000000 -0.000000  3.020341  0.149921
                         -0.017214 -4.999187 -0.000000 -0.000000 -0.301080  0.000000 -0.000000  3.020341

  11.1   0     0.1942    -0.042326 -0.729355  0.499073 -0.000000 -0.000000 -0.860585  0.000000  0.000000  1.151808 -0.042326
                         -0.729355  0.499073 -0.000000 -0.000000  0.860585 -0.000000 -0.000000 -1.151808

  12.1   0     0.2082     0.000000  0.000000  0.000000  0.900214 -0.612194 -0.000000 -0.705276  0.479626  0.000000  0.000000
                         -0.000000  0.000000  0.900214 -0.612194 -0.000000 -0.705276  0.479626 -0.000000

  13.1   0     0.2082    -0.000000  0.000000  0.000000  0.612194  0.900214 -0.000000 -0.479626 -0.705276  0.000000  0.000000
                          0.000000 -0.000000  0.612194  0.900214  0.000000 -0.479626 -0.705276 -0.000000

  14.1   0     0.2254     0.062284  1.480109 -1.281966 -0.000000 -0.000000 -0.595771  0.000000  0.000000  0.345543  0.062284
                          1.480109 -1.281966 -0.000000 -0.000000  0.595771 -0.000000  0.000000 -0.345543

  15.1   0     0.2658    -0.095691 -1.182308  5.015622 -0.000000 -0.000000  1.115975  0.000000  0.000000  1.369140  0.095691
                          1.182308 -5.015622  0.000000  0.000000  1.115975 -0.000000 -0.000000  1.369140

  16.1   0     0.2705    -0.000000 -0.000000  0.000000  0.254436  1.334050  0.000000 -0.252982 -1.326425  0.000000  0.000000
                         -0.000000 -0.000000 -0.254436 -1.334050  0.000000  0.252982  1.326425  0.000000

  17.1   0     0.2705    -0.000000 -0.000000  0.000000  1.334050 -0.254436  0.000000 -1.326425  0.252982  0.000000 -0.000000
                          0.000000 -0.000000 -1.334050  0.254436  0.000000  1.326425 -0.252982  0.000000

  18.1   0     0.5481     0.210012  2.713123 -6.472111 -0.000000 -0.000000  1.605241  0.000000 -0.000000 -3.079691 -0.210012
                         -2.713123  6.472111  0.000000 -0.000000  1.605241 -0.000000 -0.000000 -3.079691


 HOMO      3.1    -0.178518 =      -4.8577eV
 LUMO      4.1     0.017772 =       0.4836eV
 LUMO-HOMO         0.196290 =       5.3413eV


 **********************************************************************************************************************************
 DATASETS  * FILE   NREC   LENGTH (MB)   RECORD NAMES
              1      19       29.99       500      610      700      900      950      970     1000      129      960     1100   
                                          VAR    BASINP    GEOM    SYMINP    ZMAT    AOBASIS   BASIS     P2S    ABASIS      S 
                                         1400     1410     1200     1210     1080     1600     1650     1300     1700   
                                           T        V       H0       H01     AOSYM     SMH    MOLCAS    ERIS     OPER   

              3       5       14.77       500      610      700     1000     2100   
                                          VAR    BASINP    GEOM     BASIS     RHF  

 PROGRAMS   *        TOTAL   RHF-SCF       INT      FILE
 CPU TIMES  *         0.33      0.12      0.12      0.01
 REAL TIME  *         0.48 SEC
 DISK USED  *        46.95 MB
 **********************************************************************************************************************************


 PROGRAM * UHF-SCF       Authors: W. Meyer, H.-J. Werner


 NUMBER OF ELECTRONS:       3+    3-    SPACE SYMMETRY=1    SPIN SYMMETRY: Singlet 
 CONVERGENCE THRESHOLDS:    1.00E-05 (Density)    1.00E-07 (Energy)
 MAX. NUMBER OF ITERATIONS:       60
 INTERPOLATION TYPE:            DIIS
 INTERPOLATION STEPS:              2 (START)      1 (STEP)
 LEVEL SHIFTS:                 -0.20 (ALPHA)  -0.20 (BETA) 



 Molecular orbitals read from record     2100.3  Type=RHF/CANONICAL (state 1.1)

 Molecular orbital dump at record        2100.3

 ROTATION OF BETA  ORBITALS   1.1    2.1       45.00 DEGREES
 ROTATION OF BETA  ORBITALS   3.1    4.1       45.00 DEGREES

 Initial alpha occupation   3
 Initial beta  occupation   3

 ITERATION    DDIFF          GRAD             ENERGY        2-EL.EN.            DIPOLE MOMENTS         DIIS
    1      0.000D+00      0.000D+00       -14.83462682     12.653064   -0.00000    0.00000   -2.57734    0
    2      0.157D-01      0.319D-02       -14.84195291     12.742740   -0.00000    0.00000   -2.39537    1
    3      0.279D-01      0.251D-02       -14.85461393     12.914182   -0.00000    0.00000   -1.94938    2
    4      0.185D-01      0.187D-02       -14.86257674     12.996276   -0.00000    0.00000   -1.38829    3
    5      0.138D-01      0.107D-02       -14.86544305     12.966867   -0.00000   -0.00000   -0.78042    4
    6      0.463D-02      0.356D-03       -14.86574784     12.964356   -0.00000   -0.00000   -0.66814    5
    7      0.298D-02      0.332D-03       -14.86600423     12.969400   -0.00000   -0.00000   -0.47284    6
    8      0.198D-02      0.270D-03       -14.86616423     12.985344   -0.00000   -0.00000   -0.38948    7
    9      0.284D-02      0.194D-03       -14.86637113     12.998682   -0.00000    0.00000   -0.10861    8
   10      0.123D-02      0.642D-04       -14.86639514     13.005706   -0.00000    0.00000   -0.02227    9
   11      0.482D-03      0.239D-04       -14.86639660     13.005652   -0.00000    0.00000    0.00201    9
   12      0.113D-03      0.642D-05       -14.86639667     13.005559   -0.00000    0.00000    0.00256    9
   13      0.181D-04      0.399D-05       -14.86639670     13.005839   -0.00000    0.00000    0.00213    9
   14      0.640D-05      0.229D-05       -14.86639671     13.005898   -0.00000    0.00000    0.00189    9
   15      0.385D-04      0.197D-05       -14.86639674     13.006157   -0.00000   -0.00000    0.00085    6

 Final alpha occupancy:   3
 Final beta  occupancy:   3

 !UHF STATE  1.1 Energy               -14.866396743437
 Nuclear energy                         1.80000000
 One-electron energy                  -23.16947523
 Two-electron energy                    6.50307849
 Virial quotient                       -0.99262379
 !UHF STATE  1.1 Dipole moment         -0.00000000    -0.00000000     0.00084765
 Dipole moment /Debye                  -0.00000000    -0.00000000     0.00215437

 ELECTRON ORBITALS FOR POSITIVE SPIN
 ===================================

   Orb  Occ    Energy       Coefficients

                            1 1s      1 1s      1 1s      1 2px     1 2py     1 2pz     1 2px     1 2py     1 2pz     2 1s   
                            2 1s      2 1s      2 2px     2 2py     2 2pz     2 2px     2 2py     2 2pz  

   1.1   +    -2.4512     0.999045  0.016944 -0.013480  0.000000 -0.000000 -0.001806 -0.000000  0.000000 -0.001400  0.019020
                         -0.000879  0.006009 -0.000000  0.000000  0.000068  0.000000 -0.000000 -0.002449

   2.1   +    -2.4423     0.019972  0.001011 -0.004866 -0.000000  0.000000 -0.000254 -0.000000  0.000000 -0.001594 -0.998854
                         -0.018230  0.012555  0.000000  0.000000 -0.001887 -0.000000 -0.000000 -0.000689

   3.1   +    -0.1881    -0.176102  0.325064  0.495408 -0.000000 -0.000000  0.079303 -0.000000  0.000000 -0.042971 -0.112684
                          0.121417  0.158326 -0.000000 -0.000000 -0.121292 -0.000000  0.000000  0.030798

   4.1   0     0.0217     0.044558 -0.081402  0.507905 -0.000000 -0.000000  0.104045 -0.000000 -0.000000  0.906228 -0.130717
                          0.078826 -0.341514 -0.000000 -0.000000 -0.043916 -0.000000 -0.000000  0.758892

   5.1   0     0.0419     0.000000 -0.000000 -0.000000 -0.081995  0.084268 -0.000000 -0.443601  0.455899  0.000000  0.000000
                          0.000000 -0.000000 -0.029549  0.030369  0.000000 -0.230388  0.236775 -0.000000

   6.1   0     0.0419     0.000000  0.000000  0.000000  0.084268  0.081995  0.000000  0.455899  0.443601  0.000000 -0.000000
                          0.000000 -0.000000  0.030369  0.029549 -0.000000  0.236775  0.230388  0.000000

   7.1   0     0.0640    -0.019480  0.176520 -0.501018  0.000000 -0.000000  0.104357  0.000000 -0.000000  0.596522  0.009760
                          0.149065 -0.537984 -0.000000 -0.000000 -0.061628  0.000000  0.000000 -0.786726

   8.1   0     0.0927     0.000000 -0.000000 -0.000000 -0.010267 -0.014976 -0.000000  0.618576  0.902279 -0.000000  0.000000
                         -0.000000  0.000000  0.043461  0.063393 -0.000000 -0.746202 -1.088438 -0.000000

   9.1   0     0.0927     0.000000  0.000000 -0.000000  0.014976 -0.010267 -0.000000 -0.902279  0.618576 -0.000000 -0.000000
                         -0.000000  0.000000 -0.063393  0.043461  0.000000  1.088438 -0.746202 -0.000000

  10.1   0     0.1397    -0.125015  0.144668  4.792084 -0.000000 -0.000000 -0.344344 -0.000000  0.000000  3.011821  0.167348
                          0.096215 -5.095110  0.000000  0.000000 -0.234231  0.000000 -0.000000  2.983276

  11.1   0     0.1897    -0.048478 -0.797823  0.662475  0.000000  0.000000 -0.858742 -0.000000 -0.000000  1.221649 -0.039882
                         -0.752641  0.404152  0.000000  0.000000  0.819326 -0.000000 -0.000000 -1.079175

  12.1   0     0.2037     0.000000  0.000000 -0.000000 -0.651314 -1.043098 -0.000000  0.554308  0.887741  0.000000 -0.000000
                          0.000000  0.000000 -0.493411 -0.790211  0.000000  0.348514  0.558156 -0.000000

  13.1   0     0.2037     0.000000  0.000000 -0.000000  1.043098 -0.651314 -0.000000 -0.887741  0.554308 -0.000000 -0.000000
                          0.000000  0.000000  0.790211 -0.493411  0.000000 -0.558156  0.348514 -0.000000

  14.1   0     0.2246     0.093904  1.628357 -2.482511  0.000000  0.000000 -0.737134 -0.000000 -0.000000 -0.073905  0.024225
                          1.236100 -0.008061  0.000000  0.000000  0.489003 -0.000000 -0.000000 -0.843233

  15.1   0     0.2661    -0.084770 -0.943360  4.695889  0.000000  0.000000  1.019359 -0.000000 -0.000000  1.356580  0.097904
                          1.378558 -5.045546 -0.000000 -0.000000  1.205988  0.000000  0.000000  1.260857

  16.1   0     0.2681    -0.000000 -0.000000  0.000000  0.453644 -1.142161  0.000000 -0.468605  1.179829  0.000000  0.000000
                          0.000000 -0.000000 -0.542653  1.366264  0.000000  0.525236 -1.322411  0.000000

  17.1   0     0.2681     0.000000  0.000000 -0.000000  1.142161  0.453644 -0.000000 -1.179829 -0.468605 -0.000000 -0.000000
                         -0.000000  0.000000 -1.366264 -0.542653 -0.000000  1.322411  0.525236 -0.000000

  18.1   0     0.5432     0.212907  2.686531 -6.488731  0.000000  0.000000  1.600456 -0.000000 -0.000000 -3.092190 -0.208470
                         -2.740897  6.516366 -0.000000 -0.000000  1.608666  0.000000  0.000000 -3.096558

 ELECTRON ORBITALS FOR NEGATIVE SPIN
 ===================================

   Orb  Occ    Energy       Coefficients

                            1 1s      1 1s      1 1s      1 2px     1 2py     1 2pz     1 2px     1 2py     1 2pz     2 1s   
                            2 1s      2 1s      2 2px     2 2py     2 2pz     2 2px     2 2py     2 2pz  

   1.1   -    -2.4513    -0.018974  0.000878 -0.006007 -0.000000  0.000000  0.000066 -0.000000  0.000000 -0.002448 -0.999046
                         -0.016943  0.013479  0.000000  0.000000 -0.001808 -0.000000  0.000000 -0.001398

   2.1   -    -2.4423     0.998855  0.018232 -0.012557 -0.000000  0.000000 -0.001885 -0.000000  0.000000 -0.000691 -0.019925
                         -0.001010  0.004868 -0.000000  0.000000 -0.000254 -0.000000  0.000000 -0.001594

   3.1   -    -0.1882    -0.112691  0.121483  0.157981  0.000000  0.000000  0.121400  0.000000 -0.000000 -0.030966 -0.176099
                          0.325209  0.495456  0.000000  0.000000 -0.079510  0.000000 -0.000000  0.042812

   4.1   0     0.0217     0.130692 -0.078869  0.341889 -0.000000  0.000000 -0.044015 -0.000000  0.000000  0.758725 -0.044569
                          0.081339 -0.507749 -0.000000  0.000000  0.104060 -0.000000  0.000000  0.906548

   5.1   0     0.0419    -0.000000  0.000000 -0.000000  0.003163  0.042277  0.000000  0.024631  0.329223 -0.000000  0.000000
                          0.000000  0.000000  0.008776  0.117303 -0.000000  0.047467  0.634459 -0.000000

   6.1   0     0.0419     0.000000 -0.000000  0.000000  0.042277 -0.003163 -0.000000  0.329223 -0.024631  0.000000  0.000000
                          0.000000 -0.000000  0.117303 -0.008776 -0.000000  0.634459 -0.047467  0.000000

   7.1   0     0.0640     0.009863  0.149131 -0.538573  0.000000 -0.000000  0.061631 -0.000000  0.000000  0.786608 -0.019466
                          0.176646 -0.500876 -0.000000 -0.000000 -0.104369 -0.000000 -0.000000 -0.596385

   8.1   0     0.0927    -0.000000 -0.000000  0.000000 -0.073079 -0.023815 -0.000000  1.254784  0.408904  0.000000  0.000000
                         -0.000000 -0.000000  0.017297  0.005637 -0.000000 -1.040036 -0.338923  0.000000

   9.1   0     0.0927    -0.000000 -0.000000  0.000000 -0.023815  0.073079 -0.000000  0.408904 -1.254784  0.000000  0.000000
                          0.000000 -0.000000  0.005637 -0.017297  0.000000 -0.338923  1.040036  0.000000

  10.1   0     0.1397    -0.167354 -0.096214  5.095039  0.000000 -0.000000 -0.233965 -0.000000  0.000000  2.983056  0.125004
                         -0.144699 -4.791980 -0.000000  0.000000 -0.344544  0.000000 -0.000000  3.011908

  11.1   0     0.1897    -0.039929 -0.752685  0.404970 -0.000000  0.000000 -0.819244  0.000000 -0.000000  1.079645 -0.048489
                         -0.797918  0.661862 -0.000000  0.000000  0.858672  0.000000 -0.000000 -1.221262

  12.1   0     0.2037     0.000000 -0.000000 -0.000000  0.859760  0.358118 -0.000000 -0.607238 -0.252934  0.000000  0.000000
                         -0.000000  0.000000  1.135382  0.472923  0.000000 -0.966333 -0.402509 -0.000000

  13.1   0     0.2037     0.000000  0.000000 -0.000000  0.358118 -0.859760 -0.000000 -0.252934  0.607238  0.000000  0.000000
                          0.000000 -0.000000  0.472923 -1.135382  0.000000 -0.402509  0.966333 -0.000000

  14.1   0     0.2246     0.024165  1.235580 -0.005720 -0.000000  0.000000 -0.488659  0.000000  0.000000  0.844037  0.093939
                          1.628604 -2.484576 -0.000000  0.000000  0.737505  0.000000 -0.000000  0.074643

  15.1   0     0.2661    -0.097903 -1.378939  5.045344 -0.000000  0.000000  1.206196  0.000000 -0.000000  1.260471  0.084730
                          0.942823 -4.694895  0.000000 -0.000000  1.019101 -0.000000  0.000000  1.356492

  16.1   0     0.2681    -0.000000 -0.000000  0.000000  1.468699 -0.067262  0.000000 -1.421502  0.065100  0.000000  0.000000
                          0.000000 -0.000000 -1.227462  0.056214  0.000000  1.267982 -0.058070  0.000000

  17.1   0     0.2681     0.000000  0.000000 -0.000000  0.067262  1.468699 -0.000000 -0.065100 -1.421502 -0.000000 -0.000000
                         -0.000000  0.000000 -0.056214 -1.227462 -0.000000  0.058070  1.267982 -0.000000

  18.1   0     0.5432     0.208471  2.740920 -6.516469 -0.000000  0.000000  1.608684  0.000000 -0.000000 -3.096614 -0.212914
                         -2.686516  6.488818  0.000000 -0.000000  1.600432  0.000000  0.000000 -3.092213


 HOMO      3.1    -0.188123 =      -5.1191eV
 LUMO      4.1     0.021720 =       0.5910eV
 LUMO-HOMO         0.209843 =       5.7101eV

 EXPECTATION VALUE OF S**2:             0.27555976

 NATURAL SPIN ORBITALS
 =====================

  Orbital  Occupation    Energy     Coefficients
    1.1     0.52494    -0.07282     1 1s   -0.19040     1 1s    0.42789     1 1s    0.67743     1 2pz   0.01921     1 2pz  -0.04272
                                    2 1s   -0.02329     2 1s   -0.09996     2 1s   -0.19666     2 2pz  -0.12794     2 2pz   0.01149
    2.1     0.00059    -1.12448     1 1s   -0.45393     1 1s    1.12502     1 1s   -1.00739     1 2pz  -0.03435     1 2pz  -0.01423
                                    2 1s    0.54610     2 1s    1.14026     2 1s   -1.04507     2 2pz   0.03262     2 2pz   0.03426
    3.1     0.00048    -1.15742     1 1s    0.54265     1 1s   -0.29729     1 1s   -2.21869     1 2pz   0.25047     1 2pz  -1.77545
                                    2 1s    0.45626     2 1s    0.32632     2 1s    2.20132     2 2pz   0.25370     2 2pz  -1.77630
    4.1     0.00000     0.18137     1 1s   -0.16164     1 1s   -1.71785     1 1s    4.71688     1 2px   0.00010     1 2py   0.00039
                                    1 2pz  -0.50830     1 2px  -0.00005     1 2py  -0.00021     1 2pz   2.97173     2 1s    0.10201
                                    2 1s    1.17448     2 1s   -4.89180     2 2px  -0.00001     2 2py  -0.00004     2 2pz  -0.00169
                                    2 2px   0.00001     2 2py   0.00003     2 2pz   1.02332
    5.1     0.00000     0.19676     1 1s    0.00010     1 1s    0.00117     1 1s   -0.00205     1 2px   1.53072     1 2py  -0.05179
                                    1 2pz   0.00351     1 2px  -0.80743     1 2py   0.02733     1 2pz  -0.00280     2 1s   -0.00014
                                    2 1s   -0.00201     2 1s    0.00265     2 2px  -0.15164     2 2py   0.00513     2 2pz   0.00047
                                    2 2px   0.11894     2 2py  -0.00403     2 2pz  -0.00051
    6.1     0.00000     0.19673     1 2px  -0.15171     1 2py  -0.00002     1 2px   0.11893     1 2py   0.00059     2 2px   1.53149
                                    2 2py  -0.00023     2 2px  -0.80765     2 2py  -0.00147
    7.1     0.00000     0.07088     1 2px  -0.02825     1 2py   0.01576     1 2px   0.14029     1 2py  -0.41999     2 2px   0.19239
                                    2 2py   0.16111     2 2px  -0.42781     2 2py   1.04103
    8.1     0.00000     0.22398     1 2px  -0.03029     1 2py  -0.18654     1 2px   0.15139     1 2py   0.43827     2 2px   0.20552
                                    2 2py   1.65371     2 2px  -0.46097     2 2py  -1.67878
    9.1    -0.00000     0.11486     1 2px   0.11175     1 2py  -0.04661     1 2px  -0.55849     1 2py   0.01343     2 2px  -0.75816
                                    2 2py   0.48870     2 2px   1.70054     2 2py  -0.19387
   10.1    -0.00000     0.10646     1 2py  -0.80824     1 2py   1.81284     2 2px   0.00000     2 2py   0.11913     2 2px  -0.00000
                                    2 2py  -0.59537
   11.1    -0.00000     0.10649     1 1s   -0.00000     1 1s   -0.00001     1 1s    0.00001     1 2px  -0.80863     1 2py  -0.00271
                                    1 2pz  -0.00001     1 2px   1.81304     1 2py   0.00143     1 2pz   0.00000     2 1s    0.00000
                                    2 1s    0.00001     2 1s   -0.00001     2 2px   0.11917     2 2py   0.00027     2 2pz  -0.00002
                                    2 2px  -0.59540     2 2py  -0.00021     2 2pz   0.00001
   12.1    -0.00000     0.19678     1 1s    0.00009     1 1s    0.00113     1 1s   -0.00295     1 2px   0.05035     1 2py   1.53088
                                    1 2pz  -0.00034     1 2px  -0.02411     1 2py  -0.80778     1 2pz  -0.00083     2 1s   -0.00007
                                    2 1s   -0.00071     2 1s    0.00271     2 2px  -0.00492     2 2py  -0.15166     2 2pz   0.00094
                                    2 2px   0.00297     2 2py   0.11906     2 2pz  -0.00163
   13.1    -0.00000     0.25668     1 1s    0.03906     1 1s    0.46542     1 1s   -0.47841     1 2px  -0.00279     1 2py   0.00085
                                    1 2pz   1.90194     1 2px   0.00148     1 2py  -0.00045     1 2pz  -1.27246     2 1s   -0.05840
                                    2 1s   -0.91435     2 1s    0.80258     2 2px   0.00028     2 2py  -0.00008     2 2pz   0.25778
                                    2 2px  -0.00022     2 2py   0.00007     2 2pz  -0.02180
   14.1    -0.00000     0.36854     1 1s    0.09805     1 1s    1.38810     1 1s   -1.98815     1 2px  -0.00001     1 2py  -0.00073
                                    1 2pz   1.00182     1 2px   0.00002     1 2py   0.00039     1 2pz  -0.75022     2 1s   -0.09371
                                    2 1s   -1.16264     2 1s    1.74104     2 2px   0.00000     2 2py   0.00007     2 2pz   2.19120
                                    2 2px  -0.00000     2 2py  -0.00006     2 2pz  -1.88637
   15.1    -0.00000     0.27024     1 1s   -0.17368     1 1s   -1.87392     1 1s    7.46092     1 2px   0.00020     1 2py   0.00020
                                    1 2pz   0.05435     1 2px  -0.00010     1 2py  -0.00011     1 2pz   2.41382     2 1s    0.21176
                                    2 1s    2.24480     2 1s   -7.38267     2 2px  -0.00002     2 2py  -0.00002     2 2pz  -0.11590
                                    2 2px   0.00002     2 2py   0.00002     2 2pz   3.49748
   16.1    -0.00048    -1.15742     1 1s    0.45024     1 1s    0.31426     1 1s    2.21185     1 2pz  -0.25202     1 2pz   1.77637
                                    2 1s    0.54758     2 1s   -0.30916     2 1s   -2.20835     2 2pz  -0.25213     2 2pz   1.77541
   17.1    -0.00059    -1.12448     1 1s    0.55111     1 1s    1.14377     1 1s   -1.02568     1 2pz  -0.03633     1 2pz  -0.01728
                                    2 1s   -0.44800     2 1s    1.12170     2 1s   -1.02685     2 2pz   0.03067     2 2pz   0.03120
   18.1    -0.52494    -0.07283     1 1s   -0.02330     1 1s   -0.09971     1 1s   -0.19719     1 2pz   0.12831     1 2pz  -0.01162
                                    2 1s   -0.19040     2 1s    0.42820     2 1s    0.67719     2 2pz  -0.01965     2 2pz   0.04261

 NATURAL CHARGE ORBITALS
 =======================

 Occupation number threshold for pseudo-canonical orbitals: 1.9990 (occupied), 0.0010 (virtual)

 Number of pseudo-canonical occupied orbitals per symmetry:    2
 Number of active natural orbitals per symmetry:               2

   Orb     Occ        Energy       Coefficients

                                   1 1s      1 1s      1 1s      1 2px     1 2py     1 2pz     1 2px     1 2py     1 2pz     2 1s   
                                   2 1s      2 1s      2 2px     2 2py     2 2pz     2 2px     2 2py     2 2pz  

   1.1  2.00000    -2.446932     0.690425  0.011778 -0.004625 -0.000000 -0.000000 -0.001071  0.000000  0.000000  0.000686  0.721167
                                 0.012350 -0.005183 -0.000000  0.000000  0.001133  0.000000 -0.000000 -0.000594

   2.1  2.00000    -2.446585     0.721996  0.013447 -0.013010  0.000000  0.000000 -0.001413 -0.000000 -0.000000 -0.002147 -0.691290
                                -0.012922  0.012797  0.000000 -0.000000 -0.001366 -0.000000  0.000000 -0.002174

   3.1  1.85114    -0.170981    -0.151106  0.232060  0.339583 -0.000000  0.000000  0.104310 -0.000000  0.000000 -0.038427 -0.151100
                                 0.232102  0.339788  0.000000  0.000000 -0.104362  0.000000  0.000000  0.038257

   4.1  0.14886     0.025332    -0.118158  0.373073  0.618451 -0.000000 -0.000000 -0.077149 -0.000000  0.000000 -0.021994  0.118163
                                -0.373460 -0.617907 -0.000000 -0.000000 -0.076573 -0.000000  0.000000 -0.022009

   5.1  0.00000     0.043512     0.000000 -0.000000  0.000000 -0.046414  0.058616  0.000000 -0.307192  0.387955  0.000000 -0.000000
                                 0.000000 -0.000000 -0.046424  0.058629  0.000000 -0.307320  0.388117  0.000000

   6.1  0.00000     0.043512    -0.000000 -0.000000 -0.000000  0.058616  0.046414  0.000000  0.387955  0.307192 -0.000000  0.000000
                                -0.000000  0.000000  0.058629  0.046424  0.000000  0.388117  0.307320 -0.000000

   7.1  0.00000     0.063153     0.011519 -0.157545  0.499256 -0.000000  0.000000 -0.094385 -0.000000 -0.000000 -0.693424  0.011471
                                -0.157505  0.497052  0.000000 -0.000000  0.094338 -0.000000 -0.000000  0.695424

   8.1  0.00000     0.091563    -0.000000 -0.000000  0.000000 -0.012186  0.038954 -0.000000  0.363234 -1.161097  0.000000  0.000000
                                -0.000000 -0.000000  0.012189 -0.038964  0.000000 -0.363206  1.161005  0.000000

   9.1  0.00000     0.091563     0.000000  0.000000 -0.000000 -0.038954 -0.012186 -0.000000  1.161097  0.363234 -0.000000 -0.000000
                                -0.000000  0.000000  0.038964  0.012189 -0.000000 -1.161005 -0.363206 -0.000000

  10.1  0.00000     0.124985    -0.102709  0.028045  4.668514  0.000000  0.000000 -0.266110  0.000000 -0.000000  3.067334  0.102676
                                -0.028136 -4.668689  0.000000 -0.000000 -0.266050  0.000000 -0.000000  3.066605

  11.1  0.00000     0.189689     0.044619  0.779812 -0.537349 -0.000000 -0.000000  0.836821  0.000000  0.000000 -1.148615  0.044722
                                 0.779895 -0.539419 -0.000000 -0.000000 -0.836962  0.000000  0.000000  1.149545

  12.1  0.00000     0.204267    -0.000000 -0.000000  0.000000  1.083036  0.103987  0.000000 -0.852445 -0.081847  0.000000  0.000000
                                 0.000000 -0.000000  1.083289  0.104011 -0.000000 -0.852702 -0.081872  0.000000

  13.1  0.00000     0.204267     0.000000  0.000000 -0.000000 -0.103987  1.083036  0.000000  0.081847 -0.852445 -0.000000  0.000000
                                 0.000000 -0.000000 -0.104011  1.083289 -0.000000  0.081872 -0.852702  0.000000

  14.1  0.00000     0.224148     0.063148  1.450472 -1.271695  0.000000 -0.000000 -0.627392  0.000000  0.000000  0.393906  0.063166
                                 1.450798 -1.273199  0.000000 -0.000000  0.627726 -0.000000  0.000000 -0.393405

  15.1  0.00000     0.264324    -0.105764 -1.180535  5.166235  0.000000  0.000000  1.099402 -0.000000 -0.000000  1.432444  0.105741
                                 1.180073 -5.165816 -0.000000 -0.000000  1.099281  0.000000  0.000000  1.432511

  16.1  0.00000     0.267124    -0.000000 -0.000000  0.000000 -1.331589 -0.269400  0.000000  1.333128  0.269712  0.000000  0.000000
                                 0.000000 -0.000000  1.331388  0.269360  0.000000 -1.332980 -0.269682  0.000000

  17.1  0.00000     0.267124     0.000000  0.000000 -0.000000 -0.269400  1.331589 -0.000000  0.269712 -1.333128 -0.000000 -0.000000
                                -0.000000  0.000000  0.269360 -1.331388 -0.000000 -0.269682  1.332980 -0.000000

  18.1  0.00000     0.540240     0.220396  2.689891 -6.583101  0.000000 -0.000000  1.621359 -0.000000  0.000000 -3.119636 -0.220400
                                -2.689838  6.583053 -0.000000 -0.000000  1.621276  0.000000  0.000000 -3.119598

 Natural orbitals saved to record    2100.3 (Orbital set 3)

 Orbital spaces for UNO-CAS (Min. occupation: 0.020  Max. occupation: 1.980):

 Closed:        2
 Active:        2


 **********************************************************************************************************************************
 DATASETS  * FILE   NREC   LENGTH (MB)   RECORD NAMES
              1      19       29.99       500      610      700      900      950      970     1000      129      960     1100   
                                          VAR    BASINP    GEOM    SYMINP    ZMAT    AOBASIS   BASIS     P2S    ABASIS      S 
                                         1400     1410     1200     1210     1080     1600     1650     1300     1700   
                                           T        V       H0       H01     AOSYM     SMH    MOLCAS    ERIS     OPER   

              3       5       14.79       500      610      700     1000     2100   
                                          VAR    BASINP    GEOM     BASIS     UHF  

 PROGRAMS   *        TOTAL   UHF-SCF   RHF-SCF       INT      FILE
 CPU TIMES  *         0.56      0.22      0.12      0.12      0.01
 REAL TIME  *         0.72 SEC
 DISK USED  *        46.95 MB
 **********************************************************************************************************************************

 Dump information in style XML to orbitals.xml                                                                    

 Variables will not be exported.
 Molecular orbitals read from record     2100.3  Type=UHF/ALPHA (state 1.1)
 Occupation numbers read from record     2100.3  Type=UHF/ALPHA (state 1.1)
 Orbital energies read from record       2100.3  Type=UHF/ALPHA (state 1.1)
 Redundancy group numbers read from rec  2100.3  Type=UHF/BETA (state 1.1)
 Molecular orbitals read from record     2100.3  Type=UHF/BETA (state 1.1)
 Occupation numbers read from record     2100.3  Type=UHF/BETA (state 1.1)
 Orbital energies read from record       2100.3  Type=UHF/BETA (state 1.1)
 Redundancy group numbers read from rec  2100.3  Type=UHF/BETA (state 1.1)
 Molecular orbitals read from record     2100.3  Type=UHF/NATURAL (state 1.1)
 Occupation numbers read from record     2100.3  Type=UHF/NATURAL (state 1.1)
 Orbital energies read from record       2100.3  Type=UHF/NATURAL (state 1.1)
 Redundancy group numbers read from rec  2100.3  Type=UHF/BETA (state 1.1)

 **********************************************************************************************************************************

 UHF/6-31G energy=    -14.866396743437

         UHF-SCF         RHF-SCF
    -14.86639674    -14.86544674
 **********************************************************************************************************************************
 Molpro calculation terminated
