
 Primary working directories    : /scr/yuriaoto/job.023684/molpro.9Wh1w3D6Pl
 Secondary working directories  : /scr/yuriaoto/job.023684/molpro.9Wh1w3D6Pl
 Wavefunction directory         : /scr/yuriaoto/job.023684/
 Main file repository           : /scr/yuriaoto/job.023684/molpro.9Wh1w3D6Pl/

 id        : yuriaoto

 Nodes             nprocs
 t-rex.ufabc.int.br    1

 Using customized tuning parameters: mindgm=8; mindgv=16; mindgc=1; mindgr=1; noblas=0; minvec=7
 default implementation of scratch files=df  


 Variables initialized (933), CPU time= 0.00 sec
 ***,
 memory,40,m
 gprint,orbital,basis,civector
 gthresh,thrprint=0,printci=0.0
 file,3,wfu.dat,old
 
 {ccsd,CC_NORM_MAX=10.0
 nosingle
 thresh,printci=0.0,ENERGY=1.0E-10,COEFF=1.0E-12
 print,ref=1
 core,0
 wf,6,1,0;
 }
 
 Commands  initialized (760), CPU time= 0.01 sec, 617 directives.
 Default parameters read. Elapsed time= 0.05 sec

 Checking input...
 Passed
1


                                         ***  PROGRAM SYSTEM MOLPRO  ***
                                       Copyright, TTI GmbH Stuttgart, 2015
                                    Version 2019.2 linked Abr  7 2019 15:10:35


 **********************************************************************************************************************************
 LABEL *                                                                                 
  64 bit serial version                                                                  DATE: 05-Jun-20          TIME: 23:30:09  
 **********************************************************************************************************************************

 SHA1:             3a8a58c585c929645742fb5a1b7541a4ad1da699
 **********************************************************************************************************************************


 THRESHOLDS:

 ZERO    =  1.00D-12  ONEINT  =  1.00D-12  TWOINT  =  1.00D-11  PREFAC  =  1.00D-14  XXXXXX  =  1.00D-09  EORDER  =  1.00D-04
 ENERGY  =  0.00D+00  ETEST   =  0.00D+00  EDENS   =  0.00D+00  THRDEDEF=  1.00D-06  GRADIENT=  1.00D-02  STEP    =  1.00D-03
 ORBITAL =  1.00D-05  CIVEC   =  1.00D-05  COEFF   =  1.00D-04  PRINTCI =  0.00D+00  PUNCHCI =  9.90D+01  OPTGRAD =  3.00D-04
 OPTENERG=  1.00D-06  OPTSTEP =  3.00D-04  THRGRAD =  1.00D-10  COMPRESS=  1.00D-11  VARMIN  =  1.00D-07  VARMAX  =  1.00D-03
 THRDOUB =  0.00D+00  THRDIV  =  1.00D-05  THRRED  =  1.00D-07  THRPSP  =  1.00D+00  THRDC   =  1.00D-10  THRCS   =  1.00D-10
 THRNRM  =  1.00D-08  THREQ   =  0.00D+00  THRDE   =  1.00D+00  THRREF  =  1.00D-05  SPARFAC =  1.00D+00  THRDLP  =  1.00D-07
 THRDIA  =  1.00D-10  THRDLS  =  1.00D-07  THRGPS  =  0.00D+00  THRKEX  =  0.00D+00  THRDIS  =  2.00D-01  THRVAR  =  1.00D-10
 THRLOC  =  1.00D-06  THRGAP  =  1.00D-06  THRLOCT = -1.00D+00  THRGAPT = -1.00D+00  THRORB  =  1.00D-06  THRMLTP =  0.00D+00
 THRCPQCI=  1.00D-10  KEXTA   =  0.00D+00  THRCOARS=  0.00D+00  SYMTOL  =  1.00D-06  GRADTOL =  1.00D-06  THROVL  =  1.00D-08
 THRORTH =  1.00D-08  GRID    =  1.00D-06  GRIDMAX =  1.00D-03  DTMAX   =  0.00D+00  THROCCDE=  1.00D-01  THROCCDE=  1.00D-01
 THRPRINT=  0.00D+00


 Variable memory set to   40000000 words,  buffer space 



 Permanent file  3  wfu.dat  assigned.  Implementation=df    Size= 14.09 MB


 PROGRAM * RESTART 


 Reading variables from file 3

 _FNUC           =      0.00000000
 _BASIS          =    CC-PVDZ
 _NELEC          =      6.00000000
 _PROGRAM        =    RHF-SCF
 _DMX_SCF        =      0.00000000
 _DMY_SCF        =      0.00000000
 _DMZ_SCF        =      0.00000000
 _HOMO           =      2.10000000
 _EHOMO          =     -0.18089003
 _LUMO           =      2.50000000
 _ELUMO          =      0.00860175
 _ENERGY         =    -14.86923112
 _ENERGY_METHOD  =    RHF
 _ENERGY_BASIS   =    cc-pVDZ
 _ENUC           =      1.80000000
 _EPS1(1:7)      =     -2.44754692    -0.18089003     0.04506451     0.14188695     0.17633377     0.31871808
                        0.45987531
 _EPS2(1:3)      =      0.03216991     0.16180289     0.35571558
 _EPS3(1:3)      =      0.03216991     0.16180289     0.35571558
 _EPS4           =      0.31871808
 _EPS5(1:7)      =     -2.44716908     0.00860175     0.08426831     0.25807888     0.31859242     0.39752665
                        0.94057166
 _EPS6(1:3)      =      0.06717723     0.21640604     0.51855068
 _EPS7(1:3)      =      0.06717723     0.21640604     0.51855068
 _EPS8           =      0.39752665
 _IPROC_MPP      =      0.00000000
 _IPROC_MPPX     =      0.00000000
 _ORBITAL        =   2100.30000000
 _STATUS         =      1.00000000
 _DATE           =    21-Oct-19
 _LASTORB        =    RHF
 _OUTPUT         =    /scr/yuriaoto/job.022402/RHF.xml
 _PGROUP         =    D2h 
 _TIME           =    10:20:37
 R               =      5.00000000

 Geometry written to block  1 of record 700


 **********************************************************************************************************************************
 DATASETS  * FILE   NREC   LENGTH (MB)   RECORD NAMES
              3       5       14.77       500      610      700     1000     2100   
                                          VAR    BASINP    GEOM     BASIS     RHF  

 PROGRAMS   *        TOTAL   RESTART
 CPU TIMES  *         0.13      0.02
 REAL TIME  *         0.16 SEC
 DISK USED  *        26.84 MB
 **********************************************************************************************************************************


 Recomputing integrals since basis changed


 Using spherical harmonics

 Library entry LI     S cc-pVDZ              selected for orbital group  1
 Library entry LI     P cc-pVDZ              selected for orbital group  1
 Library entry LI     D cc-pVDZ              selected for orbital group  1


 PROGRAM * SEWARD (Integral evaluation for generally contracted gaussian basis sets)     Author: Roland Lindh, 1990

 Geometry written to block  1 of record 700

 Orientation using atomic masses  
 Molecule type: Linear
 User-specified symmetry elements: X,Y,Z
 Symmetry elements: X,Y,Z
 Rotational constants:      20.8009354     20.8009354      0.0000000 GHz  (calculated with average atomic masses)

 Point group  D2h 



 ATOMIC COORDINATES

 NR  ATOM    CHARGE       X              Y              Z

   1  LI1     3.00    0.000000000    0.000000000   -2.500000000
   2  LI2     3.00    0.000000000    0.000000000    2.500000000

 Bond lengths in Bohr (Angstrom)

 1-2  5.000000000
     ( 2.645886055)


 BASIS DATA

   Nr Sym  Nuc  Type         Exponents   Contraction coefficients

    1.1 Ag    1  1s        1469.000000     0.000766   -0.000120    0.000000
    2.1 Ag    2  1s         220.500000     0.005892   -0.000923    0.000000
    3.1 Ag                   50.260000     0.029671   -0.004689    0.000000
                             14.240000     0.109180   -0.017682    0.000000
                              4.581000     0.282789   -0.048902    0.000000
                              1.580000     0.453123   -0.096009    0.000000
                              0.564000     0.274774   -0.136380    0.000000
                              0.073450     0.009751    0.575102    0.000000
                              0.028050    -0.003180    0.517661    1.000000
    4.1 Ag    1  2pz          1.534000     0.022784    0.000000
    5.1 Ag    2 -2pz          0.274900     0.139107    0.000000
                              0.073620     0.500375    0.000000
                              0.024030     0.508474    1.000000
    6.1 Ag    1  3d0          0.114400     1.000000
              2  3d0   
    7.1 Ag    1  3d2+         0.114400     1.000000
              2  3d2+  
    1.2 B3u   1  2px          1.534000     0.022784    0.000000
    2.2 B3u   2  2px          0.274900     0.139107    0.000000
                              0.073620     0.500375    0.000000
                              0.024030     0.508474    1.000000
    3.2 B3u   1  3d1+         0.114400     1.000000
              2 -3d1+  
    1.3 B2u   1  2py          1.534000     0.022784    0.000000
    2.3 B2u   2  2py          0.274900     0.139107    0.000000
                              0.073620     0.500375    0.000000
                              0.024030     0.508474    1.000000
    3.3 B2u   1  3d1-         0.114400     1.000000
              2 -3d1-  
    1.4 B1g   1  3d2-         0.114400     1.000000
              2  3d2-  
    1.5 B1u   1  1s        1469.000000     0.000766   -0.000120    0.000000
    2.5 B1u   2 -1s         220.500000     0.005892   -0.000923    0.000000
    3.5 B1u                  50.260000     0.029671   -0.004689    0.000000
                             14.240000     0.109180   -0.017682    0.000000
                              4.581000     0.282789   -0.048902    0.000000
                              1.580000     0.453123   -0.096009    0.000000
                              0.564000     0.274774   -0.136380    0.000000
                              0.073450     0.009751    0.575102    0.000000
                              0.028050    -0.003180    0.517661    1.000000
    4.5 B1u   1  2pz          1.534000     0.022784    0.000000
    5.5 B1u   2  2pz          0.274900     0.139107    0.000000
                              0.073620     0.500375    0.000000
                              0.024030     0.508474    1.000000
    6.5 B1u   1  3d0          0.114400     1.000000
              2 -3d0   
    7.5 B1u   1  3d2+         0.114400     1.000000
              2 -3d2+  
    1.6 B2g   1  2px          1.534000     0.022784    0.000000
    2.6 B2g   2 -2px          0.274900     0.139107    0.000000
                              0.073620     0.500375    0.000000
                              0.024030     0.508474    1.000000
    3.6 B2g   1  3d1+         0.114400     1.000000
              2  3d1+  
    1.7 B3g   1  2py          1.534000     0.022784    0.000000
    2.7 B3g   2 -2py          0.274900     0.139107    0.000000
                              0.073620     0.500375    0.000000
                              0.024030     0.508474    1.000000
    3.7 B3g   1  3d1-         0.114400     1.000000
              2  3d1-  
    1.8 Au    1  3d2-         0.114400     1.000000
              2 -3d2-  

 NUCLEAR CHARGE:                    6
 NUMBER OF PRIMITIVE AOS:          54
 NUMBER OF SYMMETRY AOS:           52
 NUMBER OF CONTRACTIONS:           28   (    7Ag  +    3B3u +    3B2u +    1B1g +    7B1u +    3B2g +    3B3g +    1Au  )
 NUMBER OF CORE ORBITALS:           2   (    1Ag  +    0B3u +    0B2u +    0B1g +    1B1u +    0B2g +    0B3g +    0Au  )
 NUMBER OF VALENCE ORBITALS:        8   (    2Ag  +    1B3u +    1B2u +    0B1g +    2B1u +    1B2g +    1B3g +    0Au  )


 NUCLEAR REPULSION ENERGY    1.80000000

 EXTRA SYMMETRY OF AOS IN SYMMETRY 1:   1 1 1 1 1 1 2
 EXTRA SYMMETRY OF AOS IN SYMMETRY 5:   1 1 1 1 1 1 2

 Eigenvalues of metric

         1 0.313E-01 0.101E+00 0.792E+00 0.106E+01 0.116E+01 0.124E+01 0.385E+01
         2 0.135E+00 0.138E+01 0.322E+01
         3 0.135E+00 0.138E+01 0.322E+01
         4 0.124E+01
         5 0.256E-02 0.901E-02 0.995E-01 0.761E+00 0.899E+00 0.115E+01 0.285E+01
         6 0.586E-01 0.230E+00 0.973E+00
         7 0.586E-01 0.230E+00 0.973E+00
         8 0.761E+00


 Contracted 2-electron integrals neglected if value below      1.0D-11
 AO integral compression algorithm  1   Integral accuracy      1.0D-11

     0.262 MB (compressed) written to integral file (100.0%)


 NUMBER OF SORTED TWO-ELECTRON INTEGRALS:      13015.     BUFFER LENGTH:  32768
 NUMBER OF SEGMENTS:   1  SEGMENT LENGTH:      13015      RECORD LENGTH: 524288

 Memory used in sort:       0.57 MW

 SORT1 READ       27440. AND WROTE       11779. INTEGRALS IN      1 RECORDS. CPU TIME:     0.00 SEC, REAL TIME:     0.01 SEC
 SORT2 READ       11779. AND WROTE       13015. INTEGRALS IN      1 RECORDS. CPU TIME:     0.03 SEC, REAL TIME:     0.03 SEC

 FILE SIZES:   FILE 1:    30.2 MBYTE,  FILE 4:     4.2 MBYTE,   TOTAL:     34.5 MBYTE

 OPERATOR DM      FOR CENTER  0  COORDINATES:    0.000000    0.000000    0.000000


 **********************************************************************************************************************************
 DATASETS  * FILE   NREC   LENGTH (MB)   RECORD NAMES
              1      19       30.04       500      700      610      900      950      970     1000      129      960     1100   
                                          VAR     GEOM    BASINP   SYMINP    ZMAT    AOBASIS   BASIS     P2S    ABASIS      S 
                                         1400     1410     1200     1210     1080     1600     1650     1300     1700   
                                           T        V       H0       H01     AOSYM     SMH    MOLCAS    ERIS     OPER   

              3       5       14.77       500      610      700     1000     2100   
                                          VAR    BASINP    GEOM     BASIS     RHF  

 PROGRAMS   *        TOTAL       INT   RESTART
 CPU TIMES  *         0.30      0.17      0.02
 REAL TIME  *         0.43 SEC
 DISK USED  *        49.46 MB
 **********************************************************************************************************************************


 PROGRAM * CCSD (Closed-shell coupled cluster)     Authors: C. Hampel, H.-J. Werner, 1991, M. Deegan, P.J. Knowles, 1992


 Input parameters for THRESH:

 ENERGY   =    1.00D-10
 COEFF    =    1.00D-12
 PRINTCI  =    0.000000
 THRPRINT =    0.000000

 Convergence thresholds:  THRVAR = 1.00D-24  THRDEN = 1.00D-10

 Number of closed-shell orbitals:   3 (   2   0   0   0   1   0   0   0 )
 Number of external orbitals:      25 (   5   3   3   1   6   3   3   1 )

 Molecular orbitals read from record     2100.3  Type=RHF/CANONICAL (state 1.1)

 Number of N-1 electron functions:               0
 Number of N-2 electron functions:               6
 Number of singly external CSFs:                 0
 Number of doubly external CSFs:               481
 Total number of CSFs:                         482

 Length of J-op  integral file:               0.00 MB
 Length of K-op  integral file:               0.04 MB
 Length of 3-ext integral record:             0.00 MB

 Integral transformation finished. Total CPU:   0.00 sec, npass=  1  Memory used:   0.07 MW

 Reference energy:                    -14.86923112

 MP2 singlet pair energy:              -0.01997317
 MP2 triplet pair energy:              -0.00016887
 MP2 correlation energy:               -0.02014205
 MP2 total energy:                    -14.88937317

 SCS-MP2 correlation energy:           -0.02407288   (PS=  1.200000  PT=  0.333333)
 SCS-MP2 total energy:                -14.89330400

 ITER.      SQ.NORM     CORR.ENERGY   TOTAL ENERGY   ENERGY CHANGE        DEN1      VAR(S)    VAR(P)  DIIS     TIME  TIME/IT
   1      1.05138328    -0.02838780   -14.89761893    -0.00824576    -0.00442435  0.00D+00  0.28D-02  1  1     0.02     0.01
   2      1.08663228    -0.03176935   -14.90100047    -0.00338154    -0.00568234  0.00D+00  0.30D-03  2  2     0.02     0.01
   3      1.09817161    -0.03183841   -14.90106953    -0.00006906    -0.00117452  0.00D+00  0.53D-04  3  3     0.03     0.00
   4      1.10330639    -0.03189737   -14.90112849    -0.00005897    -0.00037104  0.00D+00  0.91D-05  4  4     0.03     0.00
   5      1.10509933    -0.03194866   -14.90117978    -0.00005129    -0.00013014  0.00D+00  0.11D-05  5  5     0.03     0.00
   6      1.10520772    -0.03192202   -14.90115315     0.00002664     0.00000269  0.00D+00  0.18D-06  6  6     0.04     0.00
   7      1.10528474    -0.03192507   -14.90115619    -0.00000305    -0.00000472  0.00D+00  0.25D-07  6  1     0.04     0.00
   8      1.10528492    -0.03192520   -14.90115632    -0.00000013     0.00000082  0.00D+00  0.46D-08  6  2     0.04     0.00
   9      1.10528994    -0.03192511   -14.90115623     0.00000009    -0.00000057  0.00D+00  0.45D-09  6  3     0.04     0.00
  10      1.10528547    -0.03192518   -14.90115630    -0.00000007     0.00000049  0.00D+00  0.51D-10  6  4     0.04     0.00
  11      1.10528353    -0.03192522   -14.90115634    -0.00000004     0.00000024  0.00D+00  0.10D-10  6  5     0.05     0.00
  12      1.10528223    -0.03192524   -14.90115637    -0.00000003     0.00000014  0.00D+00  0.26D-11  6  6     0.05     0.00
  13      1.10528160    -0.03192525   -14.90115637    -0.00000001     0.00000005  0.00D+00  0.55D-12  6  1     0.05     0.00
  14      1.10528139    -0.03192525   -14.90115637    -0.00000000     0.00000001  0.00D+00  0.13D-12  6  2     0.05     0.00
  15      1.10528130    -0.03192525   -14.90115637     0.00000000     0.00000000  0.00D+00  0.28D-13  6  3     0.06     0.00
  16      1.10528126    -0.03192525   -14.90115637    -0.00000000     0.00000000  0.00D+00  0.60D-14  6  4     0.06     0.00
  17      1.10528124    -0.03192525   -14.90115637    -0.00000000     0.00000000  0.00D+00  0.13D-14  6  5     0.06     0.00
  18      1.10528123    -0.03192525   -14.90115637    -0.00000000     0.00000000  0.00D+00  0.20D-15  6  6     0.06     0.00
  19      1.10528123    -0.03192525   -14.90115637     0.00000000    -0.00000000  0.00D+00  0.49D-16  6  1     0.07     0.00
  20      1.10528123    -0.03192525   -14.90115637     0.00000000    -0.00000000  0.00D+00  0.54D-17  6  3     0.07     0.00
  21      1.10528123    -0.03192525   -14.90115637     0.00000000    -0.00000000  0.00D+00  0.94D-18  6  2     0.07     0.00
  22      1.10528123    -0.03192525   -14.90115637    -0.00000000    -0.00000000  0.00D+00  0.36D-18  6  4     0.07     0.00
  23      1.10528123    -0.03192525   -14.90115637    -0.00000000     0.00000000  0.00D+00  0.34D-19  6  6     0.07     0.00
  24      1.10528123    -0.03192525   -14.90115637    -0.00000000     0.00000000  0.00D+00  0.50D-20  6  5     0.08     0.00
  25      1.10528123    -0.03192525   -14.90115637    -0.00000000     0.00000000  0.00D+00  0.82D-21  6  3     0.08     0.00
  26      1.10528123    -0.03192525   -14.90115637    -0.00000000     0.00000000  0.00D+00  0.16D-21  6  6     0.08     0.00
  27      1.10528123    -0.03192525   -14.90115637    -0.00000000     0.00000000  0.00D+00  0.14D-22  6  1     0.08     0.00
  28      1.10528123    -0.03192525   -14.90115637    -0.00000000     0.00000000  0.00D+00  0.27D-23  6  2     0.09     0.00
  29      1.10528123    -0.03192525   -14.90115637     0.00000000     0.00000000  0.00D+00  0.57D-24  6  4     0.09     0.00


 Doubles amplitudes (print threshold =  0.000E+00):

         I         J         SYM. A    SYM. B    A         B      T(IJ, AB)

         1         1         1         1         1         1     -0.00002995
         1         1         1         1         1         2      0.00014475
         1         1         1         1         1         3     -0.00007342
         1         1         1         1         1         4      0.00000000
         1         1         1         1         1         5     -0.00011910
         1         1         1         1         2         1      0.00014475
         1         1         1         1         2         2     -0.00040017
         1         1         1         1         2         3      0.00024118
         1         1         1         1         2         4     -0.00000000
         1         1         1         1         2         5      0.00023584
         1         1         1         1         3         1     -0.00007342
         1         1         1         1         3         2      0.00024118
         1         1         1         1         3         3     -0.00070661
         1         1         1         1         3         4     -0.00000000
         1         1         1         1         3         5      0.00009155
         1         1         1         1         4         1      0.00000000
         1         1         1         1         4         2     -0.00000000
         1         1         1         1         4         3     -0.00000000
         1         1         1         1         4         4     -0.00000166
         1         1         1         1         4         5     -0.00000000
         1         1         1         1         5         1     -0.00011910
         1         1         1         1         5         2      0.00023584
         1         1         1         1         5         3      0.00009155
         1         1         1         1         5         4     -0.00000000
         1         1         1         1         5         5     -0.00030971
         1         1         2         2         1         1      0.00011311
         1         1         2         2         1         2     -0.00009477
         1         1         2         2         1         3      0.00007854
         1         1         2         2         2         1     -0.00009477
         1         1         2         2         2         2     -0.00061829
         1         1         2         2         2         3      0.00015401
         1         1         2         2         3         1      0.00007854
         1         1         2         2         3         2      0.00015401
         1         1         2         2         3         3     -0.00002523
         1         1         3         3         1         1      0.00011311
         1         1         3         3         1         2     -0.00009477
         1         1         3         3         1         3      0.00007854
         1         1         3         3         2         1     -0.00009477
         1         1         3         3         2         2     -0.00061829
         1         1         3         3         2         3      0.00015401
         1         1         3         3         3         1      0.00007854
         1         1         3         3         3         2      0.00015401
         1         1         3         3         3         3     -0.00002523
         1         1         4         4         1         1     -0.00000166
         1         1         5         5         1         1     -0.00029089
         1         1         5         5         1         2      0.00048232
         1         1         5         5         1         3     -0.00021405
         1         1         5         5         1         4     -0.00035137
         1         1         5         5         1         5      0.00000000
         1         1         5         5         1         6     -0.00047505
         1         1         5         5         2         1      0.00048232
         1         1         5         5         2         2     -0.00073104
         1         1         5         5         2         3      0.00021823
         1         1         5         5         2         4      0.00053549
         1         1         5         5         2         5      0.00000000
         1         1         5         5         2         6      0.00053739
         1         1         5         5         3         1     -0.00021405
         1         1         5         5         3         2      0.00021823
         1         1         5         5         3         3     -0.00064581
         1         1         5         5         3         4     -0.00003441
         1         1         5         5         3         5      0.00000000
         1         1         5         5         3         6     -0.00117482
         1         1         5         5         4         1     -0.00035137
         1         1         5         5         4         2      0.00053549
         1         1         5         5         4         3     -0.00003441
         1         1         5         5         4         4     -0.00045720
         1         1         5         5         4         5      0.00000000
         1         1         5         5         4         6     -0.00003036
         1         1         5         5         5         1      0.00000000
         1         1         5         5         5         2      0.00000000
         1         1         5         5         5         3      0.00000000
         1         1         5         5         5         4      0.00000000
         1         1         5         5         5         5     -0.00000572
         1         1         5         5         5         6      0.00000000
         1         1         5         5         6         1     -0.00047505
         1         1         5         5         6         2      0.00053739
         1         1         5         5         6         3     -0.00117482
         1         1         5         5         6         4     -0.00003036
         1         1         5         5         6         5      0.00000000
         1         1         5         5         6         6     -0.00285175
         1         1         6         6         1         1     -0.00000723
         1         1         6         6         1         2     -0.00009086
         1         1         6         6         1         3     -0.00005588
         1         1         6         6         2         1     -0.00009086
         1         1         6         6         2         2     -0.00078343
         1         1         6         6         2         3     -0.00049207
         1         1         6         6         3         1     -0.00005588
         1         1         6         6         3         2     -0.00049207
         1         1         6         6         3         3     -0.00032705
         1         1         7         7         1         1     -0.00000723
         1         1         7         7         1         2     -0.00009086
         1         1         7         7         1         3     -0.00005588
         1         1         7         7         2         1     -0.00009086
         1         1         7         7         2         2     -0.00078343
         1         1         7         7         2         3     -0.00049207
         1         1         7         7         3         1     -0.00005588
         1         1         7         7         3         2     -0.00049207
         1         1         7         7         3         3     -0.00032705
         1         1         8         8         1         1     -0.00000572
         2         1         1         1         1         1     -0.00046513
         2         1         1         1         1         2      0.00092984
         2         1         1         1         1         3     -0.00090434
         2         1         1         1         1         4     -0.00000000
         2         1         1         1         1         5     -0.00043396
         2         1         1         1         2         1      0.00066392
         2         1         1         1         2         2     -0.00133638
         2         1         1         1         2         3      0.00134007
         2         1         1         1         2         4      0.00000000
         2         1         1         1         2         5      0.00072388
         2         1         1         1         3         1     -0.00036170
         2         1         1         1         3         2      0.00075496
         2         1         1         1         3         3     -0.00051493
         2         1         1         1         3         4     -0.00000000
         2         1         1         1         3         5     -0.00033978
         2         1         1         1         4         1     -0.00000000
         2         1         1         1         4         2      0.00000000
         2         1         1         1         4         3      0.00000000
         2         1         1         1         4         4     -0.00018937
         2         1         1         1         4         5      0.00000000
         2         1         1         1         5         1     -0.00040778
         2         1         1         1         5         2      0.00084360
         2         1         1         1         5         3     -0.00087078
         2         1         1         1         5         4      0.00000000
         2         1         1         1         5         5     -0.00059280
         2         1         2         2         1         1     -0.00046964
         2         1         2         2         1         2     -0.00116962
         2         1         2         2         1         3      0.00002288
         2         1         2         2         2         1     -0.00067421
         2         1         2         2         2         2     -0.00183161
         2         1         2         2         2         3      0.00007615
         2         1         2         2         3         1     -0.00024371
         2         1         2         2         3         2     -0.00047653
         2         1         2         2         3         3     -0.00024313
         2         1         3         3         1         1     -0.00046964
         2         1         3         3         1         2     -0.00116962
         2         1         3         3         1         3      0.00002288
         2         1         3         3         2         1     -0.00067421
         2         1         3         3         2         2     -0.00183161
         2         1         3         3         2         3      0.00007615
         2         1         3         3         3         1     -0.00024371
         2         1         3         3         3         2     -0.00047653
         2         1         3         3         3         3     -0.00024313
         2         1         4         4         1         1     -0.00018937
         2         1         5         5         1         1      0.00011020
         2         1         5         5         1         2     -0.00018111
         2         1         5         5         1         3     -0.00048644
         2         1         5         5         1         4      0.00033812
         2         1         5         5         1         5      0.00000000
         2         1         5         5         1         6     -0.00084344
         2         1         5         5         2         1     -0.00025280
         2         1         5         5         2         2      0.00034548
         2         1         5         5         2         3      0.00029530
         2         1         5         5         2         4     -0.00039258
         2         1         5         5         2         5      0.00000000
         2         1         5         5         2         6      0.00059293
         2         1         5         5         3         1     -0.00018202
         2         1         5         5         3         2      0.00017361
         2         1         5         5         3         3     -0.00080354
         2         1         5         5         3         4      0.00015706
         2         1         5         5         3         5      0.00000000
         2         1         5         5         3         6     -0.00124649
         2         1         5         5         4         1      0.00032505
         2         1         5         5         4         2     -0.00037721
         2         1         5         5         4         3      0.00036128
         2         1         5         5         4         4      0.00014127
         2         1         5         5         4         5      0.00000000
         2         1         5         5         4         6      0.00030860
         2         1         5         5         5         1      0.00000000
         2         1         5         5         5         2      0.00000000
         2         1         5         5         5         3      0.00000000
         2         1         5         5         5         4      0.00000000
         2         1         5         5         5         5     -0.00014686
         2         1         5         5         5         6     -0.00000000
         2         1         5         5         6         1     -0.00018872
         2         1         5         5         6         2      0.00015398
         2         1         5         5         6         3     -0.00088669
         2         1         5         5         6         4      0.00006117
         2         1         5         5         6         5     -0.00000000
         2         1         5         5         6         6     -0.00127732
         2         1         6         6         1         1     -0.00008615
         2         1         6         6         1         2     -0.00055236
         2         1         6         6         1         3     -0.00027076
         2         1         6         6         2         1     -0.00025185
         2         1         6         6         2         2     -0.00164550
         2         1         6         6         2         3     -0.00089377
         2         1         6         6         3         1     -0.00010990
         2         1         6         6         3         2     -0.00077528
         2         1         6         6         3         3     -0.00058724
         2         1         7         7         1         1     -0.00008615
         2         1         7         7         1         2     -0.00055236
         2         1         7         7         1         3     -0.00027076
         2         1         7         7         2         1     -0.00025185
         2         1         7         7         2         2     -0.00164550
         2         1         7         7         2         3     -0.00089377
         2         1         7         7         3         1     -0.00010990
         2         1         7         7         3         2     -0.00077528
         2         1         7         7         3         3     -0.00058724
         2         1         8         8         1         1     -0.00014686
         2         2         1         1         1         1     -0.05197437
         2         2         1         1         1         2      0.05757347
         2         2         1         1         1         3     -0.00688880
         2         2         1         1         1         4     -0.00000000
         2         2         1         1         1         5     -0.01895953
         2         2         1         1         2         1      0.05757347
         2         2         1         1         2         2     -0.07104508
         2         2         1         1         2         3      0.00351907
         2         2         1         1         2         4      0.00000000
         2         2         1         1         2         5      0.02485059
         2         2         1         1         3         1     -0.00688880
         2         2         1         1         3         2      0.00351907
         2         2         1         1         3         3     -0.00464682
         2         2         1         1         3         4      0.00000000
         2         2         1         1         3         5     -0.00147452
         2         2         1         1         4         1     -0.00000000
         2         2         1         1         4         2      0.00000000
         2         2         1         1         4         3      0.00000000
         2         2         1         1         4         4     -0.00632219
         2         2         1         1         4         5      0.00000000
         2         2         1         1         5         1     -0.01895953
         2         2         1         1         5         2      0.02485059
         2         2         1         1         5         3     -0.00147452
         2         2         1         1         5         4      0.00000000
         2         2         1         1         5         5     -0.01139698
         2         2         2         2         1         1     -0.11969269
         2         2         2         2         1         2     -0.08310167
         2         2         2         2         1         3     -0.03153717
         2         2         2         2         2         1     -0.08310167
         2         2         2         2         2         2     -0.06032233
         2         2         2         2         2         3     -0.02445712
         2         2         2         2         3         1     -0.03153717
         2         2         2         2         3         2     -0.02445712
         2         2         2         2         3         3     -0.01312803
         2         2         3         3         1         1     -0.11969269
         2         2         3         3         1         2     -0.08310167
         2         2         3         3         1         3     -0.03153717
         2         2         3         3         2         1     -0.08310167
         2         2         3         3         2         2     -0.06032233
         2         2         3         3         2         3     -0.02445712
         2         2         3         3         3         1     -0.03153717
         2         2         3         3         3         2     -0.02445712
         2         2         3         3         3         3     -0.01312803
         2         2         4         4         1         1     -0.00632219
         2         2         5         5         1         1     -0.07859496
         2         2         5         5         1         2      0.05614897
         2         2         5         5         1         3     -0.00305633
         2         2         5         5         1         4     -0.03106431
         2         2         5         5         1         5      0.00000000
         2         2         5         5         1         6      0.00689107
         2         2         5         5         2         1      0.05614897
         2         2         5         5         2         2     -0.04176800
         2         2         5         5         2         3      0.00168207
         2         2         5         5         2         4      0.02479376
         2         2         5         5         2         5      0.00000000
         2         2         5         5         2         6     -0.00627797
         2         2         5         5         3         1     -0.00305633
         2         2         5         5         3         2      0.00168207
         2         2         5         5         3         3     -0.00057573
         2         2         5         5         3         4     -0.00022292
         2         2         5         5         3         5      0.00000000
         2         2         5         5         3         6     -0.00004136
         2         2         5         5         4         1     -0.03106431
         2         2         5         5         4         2      0.02479376
         2         2         5         5         4         3     -0.00022292
         2         2         5         5         4         4     -0.01767987
         2         2         5         5         4         5      0.00000000
         2         2         5         5         4         6      0.00573630
         2         2         5         5         5         1      0.00000000
         2         2         5         5         5         2      0.00000000
         2         2         5         5         5         3      0.00000000
         2         2         5         5         5         4      0.00000000
         2         2         5         5         5         5     -0.00201311
         2         2         5         5         5         6     -0.00000000
         2         2         5         5         6         1      0.00689107
         2         2         5         5         6         2     -0.00627797
         2         2         5         5         6         3     -0.00004136
         2         2         5         5         6         4      0.00573630
         2         2         5         5         6         5     -0.00000000
         2         2         5         5         6         6     -0.00339290
         2         2         6         6         1         1     -0.00125944
         2         2         6         6         1         2     -0.00200325
         2         2         6         6         1         3     -0.00132399
         2         2         6         6         2         1     -0.00200325
         2         2         6         6         2         2     -0.00382192
         2         2         6         6         2         3     -0.00253450
         2         2         6         6         3         1     -0.00132399
         2         2         6         6         3         2     -0.00253450
         2         2         6         6         3         3     -0.00230788
         2         2         7         7         1         1     -0.00125944
         2         2         7         7         1         2     -0.00200325
         2         2         7         7         1         3     -0.00132399
         2         2         7         7         2         1     -0.00200325
         2         2         7         7         2         2     -0.00382192
         2         2         7         7         2         3     -0.00253450
         2         2         7         7         3         1     -0.00132399
         2         2         7         7         3         2     -0.00253450
         2         2         7         7         3         3     -0.00230788
         2         2         8         8         1         1     -0.00201311
         3         3         1         1         1         1     -0.00001819
         3         3         1         1         1         2      0.00012001
         3         3         1         1         1         3     -0.00005221
         3         3         1         1         1         4      0.00000000
         3         3         1         1         1         5     -0.00010215
         3         3         1         1         2         1      0.00012001
         3         3         1         1         2         2     -0.00034854
         3         3         1         1         2         3      0.00019715
         3         3         1         1         2         4      0.00000000
         3         3         1         1         2         5      0.00019968
         3         3         1         1         3         1     -0.00005221
         3         3         1         1         3         2      0.00019715
         3         3         1         1         3         3     -0.00067080
         3         3         1         1         3         4     -0.00000000
         3         3         1         1         3         5      0.00012237
         3         3         1         1         4         1      0.00000000
         3         3         1         1         4         2      0.00000000
         3         3         1         1         4         3     -0.00000000
         3         3         1         1         4         4     -0.00000075
         3         3         1         1         4         5     -0.00000000
         3         3         1         1         5         1     -0.00010215
         3         3         1         1         5         2      0.00019968
         3         3         1         1         5         3      0.00012237
         3         3         1         1         5         4     -0.00000000
         3         3         1         1         5         5     -0.00028333
         3         3         2         2         1         1      0.00011868
         3         3         2         2         1         2     -0.00007873
         3         3         2         2         1         3      0.00008106
         3         3         2         2         2         1     -0.00007873
         3         3         2         2         2         2     -0.00057414
         3         3         2         2         2         3      0.00016105
         3         3         2         2         3         1      0.00008106
         3         3         2         2         3         2      0.00016105
         3         3         2         2         3         3     -0.00002439
         3         3         3         3         1         1      0.00011868
         3         3         3         3         1         2     -0.00007873
         3         3         3         3         1         3      0.00008106
         3         3         3         3         2         1     -0.00007873
         3         3         3         3         2         2     -0.00057414
         3         3         3         3         2         3      0.00016105
         3         3         3         3         3         1      0.00008106
         3         3         3         3         3         2      0.00016105
         3         3         3         3         3         3     -0.00002439
         3         3         4         4         1         1     -0.00000075
         3         3         5         5         1         1     -0.00029617
         3         3         5         5         1         2      0.00048716
         3         3         5         5         1         3     -0.00022926
         3         3         5         5         1         4     -0.00035077
         3         3         5         5         1         5      0.00000000
         3         3         5         5         1         6     -0.00050153
         3         3         5         5         2         1      0.00048716
         3         3         5         5         2         2     -0.00073547
         3         3         5         5         2         3      0.00023220
         3         3         5         5         2         4      0.00053482
         3         3         5         5         2         5      0.00000000
         3         3         5         5         2         6      0.00056135
         3         3         5         5         3         1     -0.00022926
         3         3         5         5         3         2      0.00023220
         3         3         5         5         3         3     -0.00069479
         3         3         5         5         3         4     -0.00003201
         3         3         5         5         3         5      0.00000000
         3         3         5         5         3         6     -0.00126264
         3         3         5         5         4         1     -0.00035077
         3         3         5         5         4         2      0.00053482
         3         3         5         5         4         3     -0.00003201
         3         3         5         5         4         4     -0.00045696
         3         3         5         5         4         5      0.00000000
         3         3         5         5         4         6     -0.00002522
         3         3         5         5         5         1      0.00000000
         3         3         5         5         5         2      0.00000000
         3         3         5         5         5         3      0.00000000
         3         3         5         5         5         4      0.00000000
         3         3         5         5         5         5     -0.00000594
         3         3         5         5         5         6     -0.00000000
         3         3         5         5         6         1     -0.00050153
         3         3         5         5         6         2      0.00056135
         3         3         5         5         6         3     -0.00126264
         3         3         5         5         6         4     -0.00002522
         3         3         5         5         6         5     -0.00000000
         3         3         5         5         6         6     -0.00301125
         3         3         6         6         1         1     -0.00000801
         3         3         6         6         1         2     -0.00009626
         3         3         6         6         1         3     -0.00005931
         3         3         6         6         2         1     -0.00009626
         3         3         6         6         2         2     -0.00081976
         3         3         6         6         2         3     -0.00051610
         3         3         6         6         3         1     -0.00005931
         3         3         6         6         3         2     -0.00051610
         3         3         6         6         3         3     -0.00034365
         3         3         7         7         1         1     -0.00000801
         3         3         7         7         1         2     -0.00009626
         3         3         7         7         1         3     -0.00005931
         3         3         7         7         2         1     -0.00009626
         3         3         7         7         2         2     -0.00081976
         3         3         7         7         2         3     -0.00051610
         3         3         7         7         3         1     -0.00005931
         3         3         7         7         3         2     -0.00051610
         3         3         7         7         3         3     -0.00034365
         3         3         8         8         1         1     -0.00000594
         3         1         1         5         1         1      0.00005197
         3         1         1         5         1         2     -0.00009920
         3         1         1         5         1         3     -0.00018020
         3         1         1         5         1         4      0.00013483
         3         1         1         5         1         5      0.00000000
         3         1         1         5         1         6     -0.00035997
         3         1         1         5         2         1     -0.00004515
         3         1         1         5         2         2      0.00012318
         3         1         1         5         2         3      0.00042491
         3         1         1         5         2         4     -0.00023927
         3         1         1         5         2         5     -0.00000000
         3         1         1         5         2         6      0.00093671
         3         1         1         5         3         1     -0.00045194
         3         1         1         5         3         2      0.00057413
         3         1         1         5         3         3     -0.00055765
         3         1         1         5         3         4     -0.00033724
         3         1         1         5         3         5      0.00000000
         3         1         1         5         3         6     -0.00104221
         3         1         1         5         4         1     -0.00000000
         3         1         1         5         4         2     -0.00000000
         3         1         1         5         4         3     -0.00000000
         3         1         1         5         4         4     -0.00000000
         3         1         1         5         4         5     -0.00001319
         3         1         1         5         4         6      0.00000000
         3         1         1         5         5         1      0.00024615
         3         1         1         5         5         2     -0.00038169
         3         1         1         5         5         3     -0.00012542
         3         1         1         5         5         4      0.00029888
         3         1         1         5         5         5      0.00000000
         3         1         1         5         5         6     -0.00013246
         3         1         2         6         1         1     -0.00002597
         3         1         2         6         1         2     -0.00021904
         3         1         2         6         1         3     -0.00013825
         3         1         2         6         2         1     -0.00008764
         3         1         2         6         2         2     -0.00072435
         3         1         2         6         2         3     -0.00045996
         3         1         2         6         3         1      0.00001909
         3         1         2         6         3         2      0.00015003
         3         1         2         6         3         3      0.00007742
         3         1         3         7         1         1     -0.00002597
         3         1         3         7         1         2     -0.00021904
         3         1         3         7         1         3     -0.00013825
         3         1         3         7         2         1     -0.00008764
         3         1         3         7         2         2     -0.00072435
         3         1         3         7         2         3     -0.00045996
         3         1         3         7         3         1      0.00001909
         3         1         3         7         3         2      0.00015003
         3         1         3         7         3         3      0.00007742
         3         1         4         8         1         1     -0.00001319
         3         1         5         1         1         1      0.00004456
         3         1         5         1         1         2     -0.00002954
         3         1         5         1         1         3     -0.00046466
         3         1         5         1         1         4     -0.00000000
         3         1         5         1         1         5      0.00023528
         3         1         5         1         2         1     -0.00009233
         3         1         5         1         2         2      0.00010861
         3         1         5         1         2         3      0.00058618
         3         1         5         1         2         4     -0.00000000
         3         1         5         1         2         5     -0.00037170
         3         1         5         1         3         1     -0.00020363
         3         1         5         1         3         2      0.00047428
         3         1         5         1         3         3     -0.00059655
         3         1         5         1         3         4     -0.00000000
         3         1         5         1         3         5     -0.00016029
         3         1         5         1         4         1      0.00013538
         3         1         5         1         4         2     -0.00024009
         3         1         5         1         4         3     -0.00033688
         3         1         5         1         4         4     -0.00000000
         3         1         5         1         4         5      0.00029944
         3         1         5         1         5         1      0.00000000
         3         1         5         1         5         2     -0.00000000
         3         1         5         1         5         3      0.00000000
         3         1         5         1         5         4     -0.00001367
         3         1         5         1         5         5      0.00000000
         3         1         5         1         6         1     -0.00040063
         3         1         5         1         6         2      0.00102317
         3         1         5         1         6         3     -0.00110973
         3         1         5         1         6         4      0.00000000
         3         1         5         1         6         5     -0.00019444
         3         1         6         2         1         1     -0.00002807
         3         1         6         2         1         2     -0.00009338
         3         1         6         2         1         3      0.00001848
         3         1         6         2         2         1     -0.00023320
         3         1         6         2         2         2     -0.00076321
         3         1         6         2         2         3      0.00014485
         3         1         6         2         3         1     -0.00014826
         3         1         6         2         3         2     -0.00048734
         3         1         6         2         3         3      0.00007312
         3         1         7         3         1         1     -0.00002807
         3         1         7         3         1         2     -0.00009338
         3         1         7         3         1         3      0.00001848
         3         1         7         3         2         1     -0.00023320
         3         1         7         3         2         2     -0.00076321
         3         1         7         3         2         3      0.00014485
         3         1         7         3         3         1     -0.00014826
         3         1         7         3         3         2     -0.00048734
         3         1         7         3         3         3      0.00007312
         3         1         8         4         1         1     -0.00001367
         3         2         1         5         1         1     -0.00028451
         3         2         1         5         1         2      0.00024979
         3         2         1         5         1         3     -0.00027676
         3         2         1         5         1         4     -0.00000395
         3         2         1         5         1         5      0.00000000
         3         2         1         5         1         6     -0.00025100
         3         2         1         5         2         1      0.00060137
         3         2         1         5         2         2     -0.00051709
         3         2         1         5         2         3      0.00061376
         3         2         1         5         2         4      0.00000304
         3         2         1         5         2         5     -0.00000000
         3         2         1         5         2         6      0.00056710
         3         2         1         5         3         1     -0.00023532
         3         2         1         5         3         2      0.00003083
         3         2         1         5         3         3     -0.00065053
         3         2         1         5         3         4      0.00044454
         3         2         1         5         3         5     -0.00000000
         3         2         1         5         3         6     -0.00070370
         3         2         1         5         4         1     -0.00000000
         3         2         1         5         4         2      0.00000000
         3         2         1         5         4         3     -0.00000000
         3         2         1         5         4         4     -0.00000000
         3         2         1         5         4         5     -0.00013165
         3         2         1         5         4         6     -0.00000000
         3         2         1         5         5         1     -0.00034641
         3         2         1         5         5         2      0.00035776
         3         2         1         5         5         3     -0.00021032
         3         2         1         5         5         4     -0.00021348
         3         2         1         5         5         5     -0.00000000
         3         2         1         5         5         6     -0.00034747
         3         2         2         6         1         1     -0.00015349
         3         2         2         6         1         2     -0.00044112
         3         2         2         6         1         3     -0.00023404
         3         2         2         6         2         1     -0.00048626
         3         2         2         6         2         2     -0.00145820
         3         2         2         6         2         3     -0.00074656
         3         2         2         6         3         1      0.00011272
         3         2         2         6         3         2      0.00028943
         3         2         2         6         3         3      0.00000067
         3         2         3         7         1         1     -0.00015349
         3         2         3         7         1         2     -0.00044112
         3         2         3         7         1         3     -0.00023404
         3         2         3         7         2         1     -0.00048626
         3         2         3         7         2         2     -0.00145820
         3         2         3         7         2         3     -0.00074656
         3         2         3         7         3         1      0.00011272
         3         2         3         7         3         2      0.00028943
         3         2         3         7         3         3      0.00000067
         3         2         4         8         1         1     -0.00013165
         3         2         5         1         1         1     -0.00033635
         3         2         5         1         1         2      0.00053725
         3         2         5         1         1         3      0.00001717
         3         2         5         1         1         4     -0.00000000
         3         2         5         1         1         5     -0.00042854
         3         2         5         1         2         1      0.00033051
         3         2         5         1         2         2     -0.00052877
         3         2         5         1         2         3     -0.00006504
         3         2         5         1         2         4      0.00000000
         3         2         5         1         2         5      0.00044799
         3         2         5         1         3         1     -0.00102023
         3         2         5         1         3         2      0.00149576
         3         2         5         1         3         3     -0.00076229
         3         2         5         1         3         4     -0.00000000
         3         2         5         1         3         5     -0.00090153
         3         2         5         1         4         1      0.00008324
         3         2         5         1         4         2     -0.00001718
         3         2         5         1         4         3      0.00034948
         3         2         5         1         4         4     -0.00000000
         3         2         5         1         4         5     -0.00018230
         3         2         5         1         5         1      0.00000000
         3         2         5         1         5         2     -0.00000000
         3         2         5         1         5         3     -0.00000000
         3         2         5         1         5         4     -0.00017945
         3         2         5         1         5         5     -0.00000000
         3         2         5         1         6         1     -0.00152643
         3         2         5         1         6         2      0.00225322
         3         2         5         1         6         3     -0.00126930
         3         2         5         1         6         4     -0.00000000
         3         2         5         1         6         5     -0.00155092
         3         2         6         2         1         1     -0.00015909
         3         2         6         2         1         2     -0.00026716
         3         2         6         2         1         3     -0.00003996
         3         2         6         2         2         1     -0.00109620
         3         2         6         2         2         2     -0.00181300
         3         2         6         2         2         3     -0.00030264
         3         2         6         2         3         1     -0.00065226
         3         2         6         2         3         2     -0.00112305
         3         2         6         2         3         3     -0.00039090
         3         2         7         3         1         1     -0.00015909
         3         2         7         3         1         2     -0.00026716
         3         2         7         3         1         3     -0.00003996
         3         2         7         3         2         1     -0.00109620
         3         2         7         3         2         2     -0.00181300
         3         2         7         3         2         3     -0.00030264
         3         2         7         3         3         1     -0.00065226
         3         2         7         3         3         2     -0.00112305
         3         2         7         3         3         3     -0.00039090
         3         2         8         4         1         1     -0.00017945


 RESULTS
 =======

  Reference energy                    -14.869231121713

  Correlated core orbitals:             1.1       1.5
  Orbital energies:                    -2.4475   -2.4472

  CCD core-core energy                 -0.000390201155
  CCD core-valence energy              -0.000565128574
  CCD valence correlation energy       -0.030969923445

  CCD singlet pair energy              -0.031768185077
  CCD triplet pair energy              -0.000157068097
  CCD correlation energy               -0.031925253174

 !CCD total energy                    -14.901156374887

 Timing summary (sec):

 STEP                 CPU(USER)    SYS     CPU(TOT)    WALL
 CCSD iterations         0.09      0.01      0.10      0.11

 Program statistics:

 Available memory in ccsd:                39999164
 Min. memory needed in ccsd:                  3543
 Max. memory used in ccsd:                    3777
 Max. memory used in cckext:                 35656 (29 integral passes)



 **********************************************************************************************************************************
 DATASETS  * FILE   NREC   LENGTH (MB)   RECORD NAMES
              1      20       30.08       500      700      610      900      950      970     1000      129      960     1100   
                                          VAR     GEOM    BASINP   SYMINP    ZMAT    AOBASIS   BASIS     P2S    ABASIS      S 
                                         1400     1410     1200     1210     1080     1600     1650     1300     1700     1380   
                                           T        V       H0       H01     AOSYM     SMH    MOLCAS    ERIS     OPER     JKOP   

              3       5       14.77       500      610      700     1000     2100   
                                          VAR    BASINP    GEOM     BASIS     RHF  

 PROGRAMS   *        TOTAL      CCSD       INT   RESTART
 CPU TIMES  *         0.47      0.17      0.17      0.02
 REAL TIME  *         0.62 SEC
 DISK USED  *        49.46 MB
 **********************************************************************************************************************************
 Molecular orbitals read from record     2100.3  Type=RHF/CANONICAL (state 1.1)
 Occupation numbers read from record     2100.3  Type=RHF/RHF (state 1.1)
 Orbital energies read from record       2100.3  Type=RHF/CANONICAL (state 1.1)
 Redundancy group numbers read from rec  2100.3  Type=RHF/RHF (state 1.1)

 CCSD/cc-pVDZ energy=    -14.901156374887

            CCSD
    -14.90115637
 **********************************************************************************************************************************
 Molpro calculation terminated
