
 Primary working directories    : /scr/yuriaoto/job.023611/molpro.wQSScy237N
 Secondary working directories  : /scr/yuriaoto/job.023611/molpro.wQSScy237N
 Wavefunction directory         : /scr/yuriaoto/job.023611/
 Main file repository           : /scr/yuriaoto/job.023611/molpro.wQSScy237N/

 id        : yuriaoto

 Nodes             nprocs
 t-rex.ufabc.int.br    1

 Using customized tuning parameters: mindgm=8; mindgv=16; mindgc=1; mindgr=1; noblas=0; minvec=7
 default implementation of scratch files=df  


 Variables initialized (933), CPU time= 0.00 sec
 ***,
 memory,40,m
 gprint,orbital,basis,civector
 gthresh,printci=0.0,thrprint=0
 file,3,wfu.dat,old
 
 {bccd,SAVEORB=2150.2,print,CC_NORM_MAX=10.0
 thresh,printci=0.0,ENERGY=1.0E-10,COEFF=1.0E-12
 print,ref=1
 wf,18,1,0;
 }
 
 {put,xml,orbitals.xml; orbital,2150.2; nosort; novariables}
 
 Commands  initialized (760), CPU time= 0.01 sec, 617 directives.
 Default parameters read. Elapsed time= 0.04 sec

 Checking input...
 Passed
1


                                         ***  PROGRAM SYSTEM MOLPRO  ***
                                       Copyright, TTI GmbH Stuttgart, 2015
                                    Version 2019.2 linked Abr  7 2019 15:10:35


 **********************************************************************************************************************************
 LABEL *                                                                                 
  64 bit serial version                                                                  DATE: 05-Jun-20          TIME: 21:37:41  
 **********************************************************************************************************************************

 SHA1:             3a8a58c585c929645742fb5a1b7541a4ad1da699
 **********************************************************************************************************************************


 THRESHOLDS:

 ZERO    =  1.00D-12  ONEINT  =  1.00D-12  TWOINT  =  1.00D-11  PREFAC  =  1.00D-14  XXXXXX  =  1.00D-09  EORDER  =  1.00D-04
 ENERGY  =  0.00D+00  ETEST   =  0.00D+00  EDENS   =  0.00D+00  THRDEDEF=  1.00D-06  GRADIENT=  1.00D-02  STEP    =  1.00D-03
 ORBITAL =  1.00D-05  CIVEC   =  1.00D-05  COEFF   =  1.00D-04  PRINTCI =  0.00D+00  PUNCHCI =  9.90D+01  OPTGRAD =  3.00D-04
 OPTENERG=  1.00D-06  OPTSTEP =  3.00D-04  THRGRAD =  1.00D-10  COMPRESS=  1.00D-11  VARMIN  =  1.00D-07  VARMAX  =  1.00D-03
 THRDOUB =  0.00D+00  THRDIV  =  1.00D-05  THRRED  =  1.00D-07  THRPSP  =  1.00D+00  THRDC   =  1.00D-10  THRCS   =  1.00D-10
 THRNRM  =  1.00D-08  THREQ   =  0.00D+00  THRDE   =  1.00D+00  THRREF  =  1.00D-05  SPARFAC =  1.00D+00  THRDLP  =  1.00D-07
 THRDIA  =  1.00D-10  THRDLS  =  1.00D-07  THRGPS  =  0.00D+00  THRKEX  =  0.00D+00  THRDIS  =  2.00D-01  THRVAR  =  1.00D-10
 THRLOC  =  1.00D-06  THRGAP  =  1.00D-06  THRLOCT = -1.00D+00  THRGAPT = -1.00D+00  THRORB  =  1.00D-06  THRMLTP =  0.00D+00
 THRCPQCI=  1.00D-10  KEXTA   =  0.00D+00  THRCOARS=  0.00D+00  SYMTOL  =  1.00D-06  GRADTOL =  1.00D-06  THROVL  =  1.00D-08
 THRORTH =  1.00D-08  GRID    =  1.00D-06  GRIDMAX =  1.00D-03  DTMAX   =  0.00D+00  THROCCDE=  1.00D-01  THROCCDE=  1.00D-01
 THRPRINT=  0.00D+00


 Variable memory set to   40000000 words,  buffer space 



 Permanent file  3  wfu.dat  assigned.  Implementation=df    Size= 14.08 MB


 PROGRAM * RESTART 


 Reading variables from file 3

 _FNUC           =      0.00000000
 _BASIS          =    6-31G
 _NELEC          =     18.00000000
 _PROGRAM        =    RHF-SCF
 _DMZ            =     -0.64056636
 _DMX_SCF        =      0.00000000
 _DMY_SCF        =      0.00000000
 _DMZ_SCF        =     -0.64056636
 _HOMO           =      2.20000000
 _EHOMO          =     -0.49295113
 _LUMO           =      6.10000000
 _ELUMO          =      0.32493986
 _ENERGY         =   -459.60831721
 _ENERGY_METHOD  =    RHF
 _ENERGY_BASIS   =    6-31G
 _ENUC           =     11.33333333
 _EPS1(1:9)      =   -104.81304705   -10.58851940    -8.06562948    -1.29348723    -0.68951886     0.32493986
                        0.41098157     0.59951917     1.47579847
 _EPS2(1:3)      =     -8.04437587    -0.49295113     0.61252577
 _EPS3(1:3)      =     -8.04437587    -0.49295113     0.61252577
 _IPROC_MPP      =      0.00000000
 _IPROC_MPPX     =      0.00000000
 _ORBITAL        =   2100.30000000
 _STATUS         =      1.00000000
 _DATE           =    31-May-20
 _LASTORB        =    RHF
 _OUTPUT         =    /scr/yuriaoto/job.023311/RHF.xml
 _PGROUP         =    C2v 
 _TIME           =    01:19:24
 R               =      1.50000000

 Geometry written to block  1 of record 700


 **********************************************************************************************************************************
 DATASETS  * FILE   NREC   LENGTH (MB)   RECORD NAMES
              3       5       14.77       500      610      700     1000     2100   
                                          VAR    BASINP    GEOM     BASIS     RHF  

 PROGRAMS   *        TOTAL   RESTART
 CPU TIMES  *         0.12      0.02
 REAL TIME  *         0.15 SEC
 DISK USED  *        26.84 MB
 **********************************************************************************************************************************


 Recomputing integrals since basis changed


 Using spherical harmonics

 Library entry H      S 6-31G                selected for orbital group  1
 Library entry CL     S 6-31G                selected for orbital group  2
 Library entry CL     P 6-31G                selected for orbital group  2


 PROGRAM * SEWARD (Integral evaluation for generally contracted gaussian basis sets)     Author: Roland Lindh, 1990

 Geometry written to block  1 of record 700

 Orientation using atomic masses  
 Molecule type: Linear
 User-specified symmetry elements: X,Y
 Symmetry elements: X,Y
 Rotational constants:     818.4131427    818.4131427      0.0000000 GHz  (calculated with average atomic masses)

 Point group  C2v 



 ATOMIC COORDINATES

 NR  ATOM    CHARGE       X              Y              Z

   1  H       1.00    0.000000000    0.000000000   -1.458533433
   2  CL     17.00    0.000000000    0.000000000    0.041466567

 Bond lengths in Bohr (Angstrom)

 1-2  1.500000000
     ( 0.793765816)


 BASIS DATA

   Nr Sym  Nuc  Type         Exponents   Contraction coefficients

    1.1 A1    1  1s          18.731137     0.033495
                              2.825394     0.234727
                              0.640122     0.813757
    2.1 A1    1  1s           0.161278     1.000000
    3.1 A1    2  1s       25180.100000     0.001833
                           3780.350000     0.014034
                            860.474000     0.069097
                            242.145000     0.237452
                             77.334900     0.483034
                             26.247000     0.339856
    4.1 A1    2  1s         491.765000    -0.002297
                            116.984000    -0.030714
                             37.415300    -0.112528
                             13.783400     0.045016
                              5.452150     0.589353
                              2.225880     0.465206
    5.1 A1    2  1s           3.186490    -0.251827
                              1.144270     0.061589
                              0.420377     1.060180
    6.1 A1    2  1s           0.142657     1.000000
    7.1 A1    2  2pz        491.765000     0.003989
                            116.984000     0.030318
                             37.415300     0.129880
                             13.783400     0.327951
                              5.452150     0.453527
                              2.225880     0.252154
    8.1 A1    2  2pz          3.186490    -0.014299
                              1.144270     0.323572
                              0.420377     0.743507
    9.1 A1    2  2pz          0.142657     1.000000
    1.2 B1    2  2px        491.765000     0.003989
                            116.984000     0.030318
                             37.415300     0.129880
                             13.783400     0.327951
                              5.452150     0.453527
                              2.225880     0.252154
    2.2 B1    2  2px          3.186490    -0.014299
                              1.144270     0.323572
                              0.420377     0.743507
    3.2 B1    2  2px          0.142657     1.000000
    1.3 B2    2  2py        491.765000     0.003989
                            116.984000     0.030318
                             37.415300     0.129880
                             13.783400     0.327951
                              5.452150     0.453527
                              2.225880     0.252154
    2.3 B2    2  2py          3.186490    -0.014299
                              1.144270     0.323572
                              0.420377     0.743507
    3.3 B2    2  2py          0.142657     1.000000

 NUCLEAR CHARGE:                   18
 NUMBER OF PRIMITIVE AOS:          50
 NUMBER OF SYMMETRY AOS:           50
 NUMBER OF CONTRACTIONS:           15   (    9A1  +    3B1  +    3B2  +    0A2  )
 NUMBER OF CORE ORBITALS:           5   (    3A1  +    1B1  +    1B2  +    0A2  )
 NUMBER OF VALENCE ORBITALS:        5   (    3A1  +    1B1  +    1B2  +    0A2  )


 NUCLEAR REPULSION ENERGY   11.33333333

 Eigenvalues of metric

         1 0.130E-01 0.193E+00 0.223E+00 0.485E+00 0.687E+00 0.973E+00 0.118E+01 0.187E+01
         2 0.323E+00 0.942E+00 0.174E+01
         3 0.323E+00 0.942E+00 0.174E+01


 Contracted 2-electron integrals neglected if value below      1.0D-11
 AO integral compression algorithm  1   Integral accuracy      1.0D-11

     0.262 MB (compressed) written to integral file (100.0%)


 NUMBER OF SORTED TWO-ELECTRON INTEGRALS:       2805.     BUFFER LENGTH:  32768
 NUMBER OF SEGMENTS:   1  SEGMENT LENGTH:       2805      RECORD LENGTH: 524288

 Memory used in sort:       0.56 MW

 SORT1 READ        5185. AND WROTE        2181. INTEGRALS IN      1 RECORDS. CPU TIME:     0.00 SEC, REAL TIME:     0.00 SEC
 SORT2 READ        2181. AND WROTE        2805. INTEGRALS IN      1 RECORDS. CPU TIME:     0.00 SEC, REAL TIME:     0.00 SEC

 FILE SIZES:   FILE 1:    30.2 MBYTE,  FILE 4:     4.2 MBYTE,   TOTAL:     34.4 MBYTE

 OPERATOR DM      FOR CENTER  0  COORDINATES:    0.000000    0.000000    0.000000


 **********************************************************************************************************************************
 DATASETS  * FILE   NREC   LENGTH (MB)   RECORD NAMES
              1      19       29.97       500      700      610      900      950      970     1000      129      960     1100   
                                          VAR     GEOM    BASINP   SYMINP    ZMAT    AOBASIS   BASIS     P2S    ABASIS      S 
                                         1400     1410     1200     1210     1080     1600     1650     1300     1700   
                                           T        V       H0       H01     AOSYM     SMH    MOLCAS    ERIS     OPER   

              3       5       14.77       500      610      700     1000     2100   
                                          VAR    BASINP    GEOM     BASIS     RHF  

 PROGRAMS   *        TOTAL       INT   RESTART
 CPU TIMES  *         0.27      0.15      0.02
 REAL TIME  *         0.40 SEC
 DISK USED  *        49.44 MB
 **********************************************************************************************************************************


 PROGRAM * BCCD (Closed-shell Brueckner coupled-cluster)     Authors: C. Hampel, H.-J. Werner, 1991, M. Deegan, P.J. Knowles, 1992


 Input parameters for THRESH:

 ENERGY   =    1.00D-10
 COEFF    =    1.00D-12
 PRINTCI  =    0.000000
 THRPRINT =    0.000000

 Convergence thresholds:  THRVAR = 1.00D-24  THRDEN = 1.00D-10

 Number of core orbitals:           5 (   3   1   1 )
 Number of closed-shell orbitals:   4 (   2   1   1 )
 Number of external orbitals:       6 (   4   1   1 )

 Molecular orbitals read from record     2100.3  Type=RHF/CANONICAL (state 1.1)

 Number of N-1 electron functions:               4
 Number of N-2 electron functions:              10
 Number of singly external CSFs:                10
 Number of doubly external CSFs:               100
 Total number of CSFs:                         111

 Brueckner orbitals will be computed and saved on record    2150.2

 Length of J-op  integral file:               0.00 MB
 Length of K-op  integral file:               0.04 MB

 Integral transformation finished. Total CPU:   0.00 sec, npass=  1  Memory used:   0.07 MW

 Reference energy:                   -459.60831721

 MP2 singles energy:                   -0.00000000
 MP2 singlet pair energy:              -0.02750203
 MP2 triplet pair energy:              -0.00962058
 MP2 correlation energy:               -0.03712261
 MP2 total energy:                   -459.64543983

 SCS-MP2 correlation energy:           -0.03898858   (PS=  1.200000  PT=  0.333333)
 SCS-MP2 total energy:               -459.64730579

 ITER.      SQ.NORM     CORR.ENERGY   TOTAL ENERGY   ENERGY CHANGE        DEN1      VAR(S)    VAR(P)  DIIS     TIME  TIME/IT
   1      1.01788038    -0.04402110  -459.65233831    -0.00689848    -0.00527841  0.15D-03  0.34D-03  1  1     0.01     0.00
   2      1.01955976    -0.04460008  -459.65271497    -0.00057898    -0.00226328  0.74D-05  0.36D-04  2  2     0.01     0.00
   3      1.01965159    -0.04475761  -459.65273086    -0.00015753    -0.00009853  0.10D-06  0.86D-06  3  3     0.01     0.00
   4      1.01965126    -0.04476048  -459.65273195    -0.00000287     0.00000334  0.79D-08  0.17D-07  4  4     0.02     0.00
   5      1.01965192    -0.04475939  -459.65273257     0.00000110     0.00000006  0.34D-09  0.34D-09  5  5     0.02     0.00
   6      1.01965187    -0.04475949  -459.65273254    -0.00000010    -0.00000004  0.14D-10  0.92D-11  6  6     0.02     0.00
   7      1.01965188    -0.04475949  -459.65273254    -0.00000000    -0.00000001  0.11D-12  0.16D-12  6  1     0.02     0.00
   8      1.01965188    -0.04475949  -459.65273254     0.00000001     0.00000000  0.48D-14  0.66D-14  6  2     0.03     0.00
   9      1.01965188    -0.04475949  -459.65273254     0.00000000     0.00000000  0.17D-15  0.20D-15  6  3     0.03     0.00
  10      1.01965188    -0.04475949  -459.65273254     0.00000000     0.00000000  0.38D-17  0.87D-17  6  4     0.03     0.00
  11      1.01965188    -0.04475949  -459.65273254     0.00000000     0.00000000  0.60D-19  0.60D-18  6  5     0.03     0.00
  12      1.01965188    -0.04475949  -459.65273254    -0.00000000     0.00000000  0.10D-20  0.70D-20  6  6     0.03     0.00
  13      1.01965188    -0.04475949  -459.65273254     0.00000000     0.00000000  0.12D-21  0.15D-21  6  1     0.04     0.00
  14      1.01965188    -0.04475949  -459.65273254     0.00000000     0.00000000  0.14D-22  0.11D-22  6  2     0.04     0.00
  15      1.01965188    -0.04475949  -459.65273254     0.00000000    -0.00000000  0.18D-24  0.15D-24  6  3     0.04     0.00

 Norm of t1 vector:      0.00000000      S-energy:    -0.00000000      T1 diagnostic:  0.00000000

 Orbital rotation generators (print threshold =  0.000E+00):

         I         SYM. A    A   T(IA)

         1         1         1     -0.00038893
         1         1         2     -0.00274543
         1         1         3      0.00148887
         1         1         4     -0.00089820
         2         1         1     -0.00080828
         2         1         2      0.00187451
         2         1         3      0.00531506
         2         1         4     -0.00091907
         3         2         1      0.00640120
         4         3         1      0.00640120

 Doubles amplitudes (print threshold =  0.000E+00):

         I         J         SYM. A    SYM. B    A         B      T(IJ, AB)

         1         1         1         1         1         1     -0.00792436
         1         1         1         1         1         2      0.00307382
         1         1         1         1         1         3     -0.00186360
         1         1         1         1         1         4     -0.01072397
         1         1         1         1         2         1      0.00307382
         1         1         1         1         2         2     -0.01364440
         1         1         1         1         2         3      0.00048506
         1         1         1         1         2         4     -0.00421500
         1         1         1         1         3         1     -0.00186360
         1         1         1         1         3         2      0.00048506
         1         1         1         1         3         3     -0.00386628
         1         1         1         1         3         4     -0.00276094
         1         1         1         1         4         1     -0.01072397
         1         1         1         1         4         2     -0.00421500
         1         1         1         1         4         3     -0.00276094
         1         1         1         1         4         4     -0.02226771
         1         1         2         2         1         1     -0.00673724
         1         1         3         3         1         1     -0.00673724
         2         1         1         1         1         1      0.00485728
         2         1         1         1         1         2      0.00079085
         2         1         1         1         1         3      0.00078632
         2         1         1         1         1         4      0.00697945
         2         1         1         1         2         1     -0.00145528
         2         1         1         1         2         2      0.00960431
         2         1         1         1         2         3      0.00209554
         2         1         1         1         2         4      0.00515769
         2         1         1         1         3         1     -0.00474712
         2         1         1         1         3         2      0.00707551
         2         1         1         1         3         3     -0.01022607
         2         1         1         1         3         4     -0.00118638
         2         1         1         1         4         1      0.00670335
         2         1         1         1         4         2      0.00842700
         2         1         1         1         4         3      0.00450066
         2         1         1         1         4         4      0.01544419
         2         1         2         2         1         1     -0.00406972
         2         1         3         3         1         1     -0.00406972
         2         2         1         1         1         1     -0.02270808
         2         2         1         1         1         2     -0.00718781
         2         2         1         1         1         3      0.00303460
         2         2         1         1         1         4     -0.01576803
         2         2         1         1         2         1     -0.00718781
         2         2         1         1         2         2     -0.00987008
         2         2         1         1         2         3     -0.00109642
         2         2         1         1         2         4     -0.01082887
         2         2         1         1         3         1      0.00303460
         2         2         1         1         3         2     -0.00109642
         2         2         1         1         3         3     -0.03057355
         2         2         1         1         3         4      0.00877505
         2         2         1         1         4         1     -0.01576803
         2         2         1         1         4         2     -0.01082887
         2         2         1         1         4         3      0.00877505
         2         2         1         1         4         4     -0.02268605
         2         2         2         2         1         1     -0.00549643
         2         2         3         3         1         1     -0.00549643
         3         3         1         1         1         1     -0.00909986
         3         3         1         1         1         2     -0.00395376
         3         3         1         1         1         3     -0.00069313
         3         3         1         1         1         4     -0.00610552
         3         3         1         1         2         1     -0.00395376
         3         3         1         1         2         2     -0.01253523
         3         3         1         1         2         3      0.00716604
         3         3         1         1         2         4     -0.00086857
         3         3         1         1         3         1     -0.00069313
         3         3         1         1         3         2      0.00716604
         3         3         1         1         3         3     -0.01073272
         3         3         1         1         3         4     -0.00125040
         3         3         1         1         4         1     -0.00610552
         3         3         1         1         4         2     -0.00086857
         3         3         1         1         4         3     -0.00125040
         3         3         1         1         4         4     -0.00575802
         3         3         2         2         1         1     -0.04056478
         3         3         3         3         1         1     -0.00383873
         4         4         1         1         1         1     -0.00909986
         4         4         1         1         1         2     -0.00395376
         4         4         1         1         1         3     -0.00069313
         4         4         1         1         1         4     -0.00610552
         4         4         1         1         2         1     -0.00395376
         4         4         1         1         2         2     -0.01253523
         4         4         1         1         2         3      0.00716604
         4         4         1         1         2         4     -0.00086857
         4         4         1         1         3         1     -0.00069313
         4         4         1         1         3         2      0.00716604
         4         4         1         1         3         3     -0.01073272
         4         4         1         1         3         4     -0.00125040
         4         4         1         1         4         1     -0.00610552
         4         4         1         1         4         2     -0.00086857
         4         4         1         1         4         3     -0.00125040
         4         4         1         1         4         4     -0.00575802
         4         4         2         2         1         1     -0.00383873
         4         4         3         3         1         1     -0.04056478
         3         1         1         2         1         1     -0.00651359
         3         1         1         2         2         1      0.00208249
         3         1         1         2         3         1     -0.00495858
         3         1         1         2         4         1     -0.00673868
         3         1         2         1         1         1     -0.00983059
         3         1         2         1         1         2      0.01206056
         3         1         2         1         1         3     -0.00915304
         3         1         2         1         1         4     -0.00812841
         3         2         1         2         1         1     -0.00211013
         3         2         1         2         2         1      0.00103816
         3         2         1         2         3         1     -0.00916480
         3         2         1         2         4         1     -0.00049063
         3         2         2         1         1         1      0.00036458
         3         2         2         1         1         2     -0.00342481
         3         2         2         1         1         3     -0.02424271
         3         2         2         1         1         4      0.00272601
         4         1         1         3         1         1     -0.00651359
         4         1         1         3         2         1      0.00208249
         4         1         1         3         3         1     -0.00495858
         4         1         1         3         4         1     -0.00673868
         4         1         3         1         1         1     -0.00983059
         4         1         3         1         1         2      0.01206056
         4         1         3         1         1         3     -0.00915304
         4         1         3         1         1         4     -0.00812841
         4         2         1         3         1         1     -0.00211013
         4         2         1         3         2         1      0.00103816
         4         2         1         3         3         1     -0.00916480
         4         2         1         3         4         1     -0.00049063
         4         2         3         1         1         1      0.00036458
         4         2         3         1         1         2     -0.00342481
         4         2         3         1         1         3     -0.02424271
         4         2         3         1         1         4      0.00272601
         4         3         2         3         1         1     -0.00790551
         4         3         3         2         1         1     -0.02882053


 RESULTS
 =======

  Reference energy                   -459.607973055199
  BCCD singlet pair energy             -0.034883887864
  BCCD triplet pair energy             -0.009875598198
  BCCD correlation energy              -0.044759486062

 !BCCD total energy                  -459.652732541261

 Approximate expectation values using Brueckner orbitals

 !BCCD(ref) STATE  1.1 Dipole momen     0.00000000     0.00000000    -0.64004246
 Dipole moment /Debye                   0.00000000     0.00000000    -1.62671913

 Brueckner orbitals saved on record           2150.2 (orbital set 1)
 Brueckner density (ref) saved on record      2150.2 (density set 1)

 Brueckner orbitals
 ==================

   Orb     Occ           Coefficients

                         1 1s      1 1s      2 1s      2 1s      2 1s      2 1s      2 2pz     2 2pz     2 2pz  

   4.1    2.0000000    0.346762  0.014600  0.073078 -0.342544  0.604207  0.176450  0.114036 -0.198316  0.004532

   5.1    2.0000000   -0.343649 -0.299151  0.036608 -0.163345  0.373968  0.543678 -0.244134  0.541143  0.057080

                         2 2px     2 2px     2 2px  

   2.2    2.0000000   -0.283109  0.736141  0.401242

                         2 2py     2 2py     2 2py  

   2.3    2.0000000   -0.283109  0.736141  0.401242

 Timing summary (sec):

 STEP                 CPU(USER)    SYS     CPU(TOT)    WALL
 Transformation          0.01      0.01      0.02      0.00
 CCSD iterations         0.06      0.02      0.08      0.09

 Program statistics:

 Available memory in ccsd:                39999136
 Min. memory needed in ccsd:                  1786
 Max. memory used in ccsd:                    1786
 Max. memory used in cckext:                 35306 (15 integral passes)



 **********************************************************************************************************************************
 DATASETS  * FILE   NREC   LENGTH (MB)   RECORD NAMES
              1      20       29.98       500      700      610      900      950      970     1000      129      960     1100   
                                          VAR     GEOM    BASINP   SYMINP    ZMAT    AOBASIS   BASIS     P2S    ABASIS      S 
                                         1400     1410     1200     1210     1080     1600     1650     1300     1700     1380   
                                           T        V       H0       H01     AOSYM     SMH    MOLCAS    ERIS     OPER     JKOP   

              2       4        2.74       700     1000      520     2150   
                                         GEOM     BASIS   MCVARS    BCCD   

              3       5       14.77       500      610      700     1000     2100   
                                          VAR    BASINP    GEOM     BASIS     RHF  

 PROGRAMS   *        TOTAL      BCCD       INT   RESTART
 CPU TIMES  *         0.41      0.14      0.15      0.02
 REAL TIME  *         0.56 SEC
 DISK USED  *        49.44 MB
 **********************************************************************************************************************************

 Dump information in style XML to orbitals.xml                                                                    

 Variables will not be exported.
 Molecular orbitals read from record     2150.2  Type=BCCD/BRUECKNER (state 1.1)
 Occupation numbers read from record     2150.2  Type=BCCD/BRUECKNER (state 1.1)

 No orbital energies found for orbital set 0

 No redundancy group numbers found for orbital set 0

 **********************************************************************************************************************************

 BCCD/6-31G energy=   -459.652732541261

            BCCD
   -459.65273254
 **********************************************************************************************************************************
 Molpro calculation terminated
