
 Primary working directories    : /scr/yuriaoto/job.023408/molpro.ej1p75oDZn
 Secondary working directories  : /scr/yuriaoto/job.023408/molpro.ej1p75oDZn
 Wavefunction directory         : /scr/yuriaoto/job.023408/
 Main file repository           : /scr/yuriaoto/job.023408/molpro.ej1p75oDZn/

 id        : yuriaoto

 Nodes             nprocs
 t-rex.ufabc.int.br    1

 Using customized tuning parameters: mindgm=8; mindgv=16; mindgc=1; mindgr=1; noblas=0; minvec=7
 default implementation of scratch files=df  


 Variables initialized (933), CPU time= 0.00 sec
 ***,
 memory,40,m
 gprint,orbital,basis,civector
 gthresh,thrprint=0,printci=0.0
 file,3,wfu.dat,old
 
 {cisd,CC_NORM_MAX=10.0
 thresh,printci=0.0,ENERGY=1.0E-10,COEFF=1.0E-12
 print,ref=1
 wf,18,1,0;
 }
 
 Commands  initialized (760), CPU time= 0.01 sec, 617 directives.
 Default parameters read. Elapsed time= 0.04 sec

 Checking input...
 Passed
1


                                         ***  PROGRAM SYSTEM MOLPRO  ***
                                       Copyright, TTI GmbH Stuttgart, 2015
                                    Version 2019.2 linked Abr  7 2019 15:10:35


 **********************************************************************************************************************************
 LABEL *                                                                                 
  64 bit serial version                                                                  DATE: 02-Jun-20          TIME: 00:21:32  
 **********************************************************************************************************************************

 SHA1:             3a8a58c585c929645742fb5a1b7541a4ad1da699
 **********************************************************************************************************************************


 THRESHOLDS:

 ZERO    =  1.00D-12  ONEINT  =  1.00D-12  TWOINT  =  1.00D-11  PREFAC  =  1.00D-14  XXXXXX  =  1.00D-09  EORDER  =  1.00D-04
 ENERGY  =  0.00D+00  ETEST   =  0.00D+00  EDENS   =  0.00D+00  THRDEDEF=  1.00D-06  GRADIENT=  1.00D-02  STEP    =  1.00D-03
 ORBITAL =  1.00D-05  CIVEC   =  1.00D-05  COEFF   =  1.00D-04  PRINTCI =  0.00D+00  PUNCHCI =  9.90D+01  OPTGRAD =  3.00D-04
 OPTENERG=  1.00D-06  OPTSTEP =  3.00D-04  THRGRAD =  1.00D-10  COMPRESS=  1.00D-11  VARMIN  =  1.00D-07  VARMAX  =  1.00D-03
 THRDOUB =  0.00D+00  THRDIV  =  1.00D-05  THRRED  =  1.00D-07  THRPSP  =  1.00D+00  THRDC   =  1.00D-10  THRCS   =  1.00D-10
 THRNRM  =  1.00D-08  THREQ   =  0.00D+00  THRDE   =  1.00D+00  THRREF  =  1.00D-05  SPARFAC =  1.00D+00  THRDLP  =  1.00D-07
 THRDIA  =  1.00D-10  THRDLS  =  1.00D-07  THRGPS  =  0.00D+00  THRKEX  =  0.00D+00  THRDIS  =  2.00D-01  THRVAR  =  1.00D-10
 THRLOC  =  1.00D-06  THRGAP  =  1.00D-06  THRLOCT = -1.00D+00  THRGAPT = -1.00D+00  THRORB  =  1.00D-06  THRMLTP =  0.00D+00
 THRCPQCI=  1.00D-10  KEXTA   =  0.00D+00  THRCOARS=  0.00D+00  SYMTOL  =  1.00D-06  GRADTOL =  1.00D-06  THROVL  =  1.00D-08
 THRORTH =  1.00D-08  GRID    =  1.00D-06  GRIDMAX =  1.00D-03  DTMAX   =  0.00D+00  THROCCDE=  1.00D-01  THROCCDE=  1.00D-01
 THRPRINT=  0.00D+00


 Variable memory set to   40000000 words,  buffer space 



 Permanent file  3  wfu.dat  assigned.  Implementation=df    Size= 14.08 MB


 PROGRAM * RESTART 


 Reading variables from file 3

 _FNUC           =      0.00000000
 _BASIS          =    6-31G
 _NELEC          =     18.00000000
 _PROGRAM        =    RHF-SCF
 _DMZ            =     -0.64056636
 _DMX_SCF        =      0.00000000
 _DMY_SCF        =      0.00000000
 _DMZ_SCF        =     -0.64056636
 _HOMO           =      2.20000000
 _EHOMO          =     -0.49295113
 _LUMO           =      6.10000000
 _ELUMO          =      0.32493986
 _ENERGY         =   -459.60831721
 _ENERGY_METHOD  =    RHF
 _ENERGY_BASIS   =    6-31G
 _ENUC           =     11.33333333
 _EPS1(1:9)      =   -104.81304705   -10.58851940    -8.06562948    -1.29348723    -0.68951886     0.32493986
                        0.41098157     0.59951917     1.47579847
 _EPS2(1:3)      =     -8.04437587    -0.49295113     0.61252577
 _EPS3(1:3)      =     -8.04437587    -0.49295113     0.61252577
 _IPROC_MPP      =      0.00000000
 _IPROC_MPPX     =      0.00000000
 _ORBITAL        =   2100.30000000
 _STATUS         =      1.00000000
 _DATE           =    31-May-20
 _LASTORB        =    RHF
 _OUTPUT         =    /scr/yuriaoto/job.023311/RHF.xml
 _PGROUP         =    C2v 
 _TIME           =    01:19:24
 R               =      1.50000000

 Geometry written to block  1 of record 700


 **********************************************************************************************************************************
 DATASETS  * FILE   NREC   LENGTH (MB)   RECORD NAMES
              3       5       14.77       500      610      700     1000     2100   
                                          VAR    BASINP    GEOM     BASIS     RHF  

 PROGRAMS   *        TOTAL   RESTART
 CPU TIMES  *         0.12      0.02
 REAL TIME  *         0.14 SEC
 DISK USED  *        26.84 MB
 **********************************************************************************************************************************


 Recomputing integrals since basis changed


 Using spherical harmonics

 Library entry H      S 6-31G                selected for orbital group  1
 Library entry CL     S 6-31G                selected for orbital group  2
 Library entry CL     P 6-31G                selected for orbital group  2


 PROGRAM * SEWARD (Integral evaluation for generally contracted gaussian basis sets)     Author: Roland Lindh, 1990

 Geometry written to block  1 of record 700

 Orientation using atomic masses  
 Molecule type: Linear
 User-specified symmetry elements: X,Y
 Symmetry elements: X,Y
 Rotational constants:     818.4131427    818.4131427      0.0000000 GHz  (calculated with average atomic masses)

 Point group  C2v 



 ATOMIC COORDINATES

 NR  ATOM    CHARGE       X              Y              Z

   1  H       1.00    0.000000000    0.000000000   -1.458533433
   2  CL     17.00    0.000000000    0.000000000    0.041466567

 Bond lengths in Bohr (Angstrom)

 1-2  1.500000000
     ( 0.793765816)


 BASIS DATA

   Nr Sym  Nuc  Type         Exponents   Contraction coefficients

    1.1 A1    1  1s          18.731137     0.033495
                              2.825394     0.234727
                              0.640122     0.813757
    2.1 A1    1  1s           0.161278     1.000000
    3.1 A1    2  1s       25180.100000     0.001833
                           3780.350000     0.014034
                            860.474000     0.069097
                            242.145000     0.237452
                             77.334900     0.483034
                             26.247000     0.339856
    4.1 A1    2  1s         491.765000    -0.002297
                            116.984000    -0.030714
                             37.415300    -0.112528
                             13.783400     0.045016
                              5.452150     0.589353
                              2.225880     0.465206
    5.1 A1    2  1s           3.186490    -0.251827
                              1.144270     0.061589
                              0.420377     1.060180
    6.1 A1    2  1s           0.142657     1.000000
    7.1 A1    2  2pz        491.765000     0.003989
                            116.984000     0.030318
                             37.415300     0.129880
                             13.783400     0.327951
                              5.452150     0.453527
                              2.225880     0.252154
    8.1 A1    2  2pz          3.186490    -0.014299
                              1.144270     0.323572
                              0.420377     0.743507
    9.1 A1    2  2pz          0.142657     1.000000
    1.2 B1    2  2px        491.765000     0.003989
                            116.984000     0.030318
                             37.415300     0.129880
                             13.783400     0.327951
                              5.452150     0.453527
                              2.225880     0.252154
    2.2 B1    2  2px          3.186490    -0.014299
                              1.144270     0.323572
                              0.420377     0.743507
    3.2 B1    2  2px          0.142657     1.000000
    1.3 B2    2  2py        491.765000     0.003989
                            116.984000     0.030318
                             37.415300     0.129880
                             13.783400     0.327951
                              5.452150     0.453527
                              2.225880     0.252154
    2.3 B2    2  2py          3.186490    -0.014299
                              1.144270     0.323572
                              0.420377     0.743507
    3.3 B2    2  2py          0.142657     1.000000

 NUCLEAR CHARGE:                   18
 NUMBER OF PRIMITIVE AOS:          50
 NUMBER OF SYMMETRY AOS:           50
 NUMBER OF CONTRACTIONS:           15   (    9A1  +    3B1  +    3B2  +    0A2  )
 NUMBER OF CORE ORBITALS:           5   (    3A1  +    1B1  +    1B2  +    0A2  )
 NUMBER OF VALENCE ORBITALS:        5   (    3A1  +    1B1  +    1B2  +    0A2  )


 NUCLEAR REPULSION ENERGY   11.33333333

 Eigenvalues of metric

         1 0.130E-01 0.193E+00 0.223E+00 0.485E+00 0.687E+00 0.973E+00 0.118E+01 0.187E+01
         2 0.323E+00 0.942E+00 0.174E+01
         3 0.323E+00 0.942E+00 0.174E+01


 Contracted 2-electron integrals neglected if value below      1.0D-11
 AO integral compression algorithm  1   Integral accuracy      1.0D-11

     0.262 MB (compressed) written to integral file (100.0%)


 NUMBER OF SORTED TWO-ELECTRON INTEGRALS:       2805.     BUFFER LENGTH:  32768
 NUMBER OF SEGMENTS:   1  SEGMENT LENGTH:       2805      RECORD LENGTH: 524288

 Memory used in sort:       0.56 MW

 SORT1 READ        5185. AND WROTE        2181. INTEGRALS IN      1 RECORDS. CPU TIME:     0.00 SEC, REAL TIME:     0.00 SEC
 SORT2 READ        2181. AND WROTE        2805. INTEGRALS IN      1 RECORDS. CPU TIME:     0.01 SEC, REAL TIME:     0.01 SEC

 FILE SIZES:   FILE 1:    30.2 MBYTE,  FILE 4:     4.2 MBYTE,   TOTAL:     34.4 MBYTE

 OPERATOR DM      FOR CENTER  0  COORDINATES:    0.000000    0.000000    0.000000


 **********************************************************************************************************************************
 DATASETS  * FILE   NREC   LENGTH (MB)   RECORD NAMES
              1      19       29.97       500      700      610      900      950      970     1000      129      960     1100   
                                          VAR     GEOM    BASINP   SYMINP    ZMAT    AOBASIS   BASIS     P2S    ABASIS      S 
                                         1400     1410     1200     1210     1080     1600     1650     1300     1700   
                                           T        V       H0       H01     AOSYM     SMH    MOLCAS    ERIS     OPER   

              3       5       14.77       500      610      700     1000     2100   
                                          VAR    BASINP    GEOM     BASIS     RHF  

 PROGRAMS   *        TOTAL       INT   RESTART
 CPU TIMES  *         0.28      0.16      0.02
 REAL TIME  *         0.90 SEC
 DISK USED  *        49.44 MB
 **********************************************************************************************************************************


 PROGRAM * CISD (Closed-shell CI(SD))     Authors: C. Hampel, H.-J. Werner, 1991, M. Deegan, P.J. Knowles, 1992


 Input parameters for THRESH:

 ENERGY   =    1.00D-10
 COEFF    =    1.00D-12
 PRINTCI  =    0.000000
 THRPRINT =    0.000000

 Convergence thresholds:  THRVAR = 1.00D-24  THRDEN = 1.00D-10

 Number of core orbitals:           5 (   3   1   1 )
 Number of closed-shell orbitals:   4 (   2   1   1 )
 Number of external orbitals:       6 (   4   1   1 )

 Molecular orbitals read from record     2100.3  Type=RHF/CANONICAL (state 1.1)

 Number of N-1 electron functions:               4
 Number of N-2 electron functions:              10
 Number of singly external CSFs:                10
 Number of doubly external CSFs:               100
 Total number of CSFs:                         111

 Length of J-op  integral file:               0.00 MB
 Length of K-op  integral file:               0.04 MB

 Integral transformation finished. Total CPU:   0.00 sec, npass=  1  Memory used:   0.07 MW

 Reference energy:                   -459.60831721

 MP2 singlet pair energy:              -0.02750203
 MP2 triplet pair energy:              -0.00962058
 MP2 correlation energy:               -0.03712261
 MP2 total energy:                   -459.64543983

 SCS-MP2 correlation energy:           -0.03898858   (PS=  1.200000  PT=  0.333333)
 SCS-MP2 total energy:               -459.64730579

 ITER.      SQ.NORM     CORR.ENERGY   TOTAL ENERGY   ENERGY CHANGE        DEN1      VAR(S)    VAR(P)  DIIS     TIME  TIME/IT
   1      1.01747967    -0.04335004  -459.65166725    -0.00622742    -0.00482412  0.15D-03  0.29D-03  1  1     0.02     0.00
   2      1.01921008    -0.04367249  -459.65198970    -0.00032245    -0.00178702  0.72D-06  0.54D-05  2  2     0.02     0.00
   3      1.01934844    -0.04381816  -459.65213537    -0.00014567    -0.00009998  0.41D-07  0.10D-06  3  3     0.03     0.00
   4      1.01933771    -0.04382135  -459.65213856    -0.00000319     0.00001445  0.21D-08  0.32D-08  4  4     0.03     0.00
   5      1.01934008    -0.04382138  -459.65213860    -0.00000004    -0.00000222  0.14D-09  0.75D-10  5  5     0.03     0.00
   6      1.01933991    -0.04382139  -459.65213860    -0.00000000     0.00000011  0.18D-11  0.27D-11  6  6     0.03     0.00
   7      1.01933992    -0.04382139  -459.65213860    -0.00000000     0.00000000  0.36D-13  0.51D-13  6  1     0.04     0.00
   8      1.01933992    -0.04382139  -459.65213860    -0.00000000    -0.00000000  0.76D-15  0.16D-14  6  3     0.04     0.00
   9      1.01933991    -0.04382139  -459.65213860    -0.00000000     0.00000000  0.39D-16  0.32D-16  6  2     0.04     0.00
  10      1.01933991    -0.04382139  -459.65213860     0.00000000    -0.00000000  0.12D-17  0.67D-18  6  4     0.04     0.00
  11      1.01933991    -0.04382139  -459.65213860     0.00000000     0.00000000  0.22D-19  0.33D-19  6  5     0.05     0.00
  12      1.01933991    -0.04382139  -459.65213860     0.00000000     0.00000000  0.62D-21  0.16D-20  6  6     0.05     0.00
  13      1.01933991    -0.04382139  -459.65213860     0.00000000     0.00000000  0.52D-22  0.91D-22  6  1     0.05     0.00
  14      1.01933991    -0.04382139  -459.65213860     0.00000000    -0.00000000  0.39D-23  0.28D-23  6  3     0.05     0.00
  15      1.01933991    -0.04382139  -459.65213860     0.00000000     0.00000000  0.12D-24  0.14D-24  6  2     0.05     0.00


 ! DIPOLE MOMENTS:                      0.00000000     0.00000000    -0.63885065



 Norm of t1 vector:      0.01671118      S-energy:    -0.00001201      T1 diagnostic:  0.00417779

 Singles amplitudes (print threshold =  0.000E+00):

         I         SYM. A    A   T(IA)

         1         1         1     -0.00020860
         1         1         2     -0.00298155
         1         1         3      0.00162069
         1         1         4     -0.00075407
         2         1         1     -0.00082655
         2         1         2      0.00193766
         2         1         3      0.00565198
         2         1         4     -0.00099727
         3         2         1      0.00671290
         4         3         1      0.00671290

 Doubles amplitudes (print threshold =  0.000E+00):

         I         J         SYM. A    SYM. B    A         B      T(IJ, AB)

         1         1         1         1         1         1     -0.00783062
         1         1         1         1         1         2      0.00303864
         1         1         1         1         1         3     -0.00182124
         1         1         1         1         1         4     -0.01063130
         1         1         1         1         2         1      0.00303864
         1         1         1         1         2         2     -0.01353152
         1         1         1         1         2         3      0.00045051
         1         1         1         1         2         4     -0.00420744
         1         1         1         1         3         1     -0.00182124
         1         1         1         1         3         2      0.00045051
         1         1         1         1         3         3     -0.00378556
         1         1         1         1         3         4     -0.00272778
         1         1         1         1         4         1     -0.01063130
         1         1         1         1         4         2     -0.00420744
         1         1         1         1         4         3     -0.00272778
         1         1         1         1         4         4     -0.02212499
         1         1         2         2         1         1     -0.00669303
         1         1         3         3         1         1     -0.00669303
         2         1         1         1         1         1      0.00480740
         2         1         1         1         1         2      0.00078814
         2         1         1         1         1         3      0.00079477
         2         1         1         1         1         4      0.00691589
         2         1         1         1         2         1     -0.00145712
         2         1         1         1         2         2      0.00953683
         2         1         1         1         2         3      0.00208731
         2         1         1         1         2         4      0.00512826
         2         1         1         1         3         1     -0.00465649
         2         1         1         1         3         2      0.00696649
         2         1         1         1         3         3     -0.01009132
         2         1         1         1         3         4     -0.00113994
         2         1         1         1         4         1      0.00662833
         2         1         1         1         4         2      0.00839911
         2         1         1         1         4         3      0.00448474
         2         1         1         1         4         4      0.01534107
         2         1         2         2         1         1     -0.00405264
         2         1         3         3         1         1     -0.00405264
         2         2         1         1         1         1     -0.02250568
         2         2         1         1         1         2     -0.00712947
         2         2         1         1         1         3      0.00297648
         2         2         1         1         1         4     -0.01563047
         2         2         1         1         2         1     -0.00712947
         2         2         1         1         2         2     -0.00973636
         2         2         1         1         2         3     -0.00109435
         2         2         1         1         2         4     -0.01076366
         2         2         1         1         3         1      0.00297648
         2         2         1         1         3         2     -0.00109435
         2         2         1         1         3         3     -0.03011331
         2         2         1         1         3         4      0.00866957
         2         2         1         1         4         1     -0.01563047
         2         2         1         1         4         2     -0.01076366
         2         2         1         1         4         3      0.00866957
         2         2         1         1         4         4     -0.02253277
         2         2         2         2         1         1     -0.00540316
         2         2         3         3         1         1     -0.00540316
         3         3         1         1         1         1     -0.00895915
         3         3         1         1         1         2     -0.00392623
         3         3         1         1         1         3     -0.00067729
         3         3         1         1         1         4     -0.00604758
         3         3         1         1         2         1     -0.00392623
         3         3         1         1         2         2     -0.01234515
         3         3         1         1         2         3      0.00706836
         3         3         1         1         2         4     -0.00086761
         3         3         1         1         3         1     -0.00067729
         3         3         1         1         3         2      0.00706836
         3         3         1         1         3         3     -0.01056150
         3         3         1         1         3         4     -0.00124311
         3         3         1         1         4         1     -0.00604758
         3         3         1         1         4         2     -0.00086761
         3         3         1         1         4         3     -0.00124311
         3         3         1         1         4         4     -0.00571706
         3         3         2         2         1         1     -0.03974237
         3         3         3         3         1         1     -0.00375469
         4         4         1         1         1         1     -0.00895915
         4         4         1         1         1         2     -0.00392623
         4         4         1         1         1         3     -0.00067729
         4         4         1         1         1         4     -0.00604758
         4         4         1         1         2         1     -0.00392623
         4         4         1         1         2         2     -0.01234515
         4         4         1         1         2         3      0.00706836
         4         4         1         1         2         4     -0.00086761
         4         4         1         1         3         1     -0.00067729
         4         4         1         1         3         2      0.00706836
         4         4         1         1         3         3     -0.01056150
         4         4         1         1         3         4     -0.00124311
         4         4         1         1         4         1     -0.00604758
         4         4         1         1         4         2     -0.00086761
         4         4         1         1         4         3     -0.00124311
         4         4         1         1         4         4     -0.00571706
         4         4         2         2         1         1     -0.00375469
         4         4         3         3         1         1     -0.03974237
         3         1         1         2         1         1     -0.00645835
         3         1         1         2         2         1      0.00204337
         3         1         1         2         3         1     -0.00488678
         3         1         1         2         4         1     -0.00669104
         3         1         2         1         1         1     -0.00967574
         3         1         2         1         1         2      0.01188855
         3         1         2         1         1         3     -0.00898104
         3         1         2         1         1         4     -0.00802729
         3         2         1         2         1         1     -0.00209537
         3         2         1         2         2         1      0.00100233
         3         2         1         2         3         1     -0.00904464
         3         2         1         2         4         1     -0.00050589
         3         2         2         1         1         1      0.00033619
         3         2         2         1         1         2     -0.00341731
         3         2         2         1         1         3     -0.02382645
         3         2         2         1         1         4      0.00265595
         4         1         1         3         1         1     -0.00645835
         4         1         1         3         2         1      0.00204337
         4         1         1         3         3         1     -0.00488678
         4         1         1         3         4         1     -0.00669104
         4         1         3         1         1         1     -0.00967574
         4         1         3         1         1         2      0.01188855
         4         1         3         1         1         3     -0.00898104
         4         1         3         1         1         4     -0.00802729
         4         2         1         3         1         1     -0.00209537
         4         2         1         3         2         1      0.00100233
         4         2         1         3         3         1     -0.00904464
         4         2         1         3         4         1     -0.00050589
         4         2         3         1         1         1      0.00033619
         4         2         3         1         1         2     -0.00341731
         4         2         3         1         1         3     -0.02382645
         4         2         3         1         1         4      0.00265595
         4         3         2         3         1         1     -0.00774730
         4         3         3         2         1         1     -0.02824038


 RESULTS
 =======

  Reference energy                   -459.608317213086
  CISD singlet pair energy             -0.034226332007
  CISD triplet pair energy             -0.009583047938
  CISD correlation energy              -0.043821385522

 !CISD total energy                  -459.652138598608

 Timing summary (sec):

 STEP                 CPU(USER)    SYS     CPU(TOT)    WALL
 Transformation          0.01      0.01      0.02      0.06
 CCSD iterations         0.05      0.00      0.05      0.06

 Program statistics:

 Available memory in ccsd:                39999136
 Min. memory needed in ccsd:                  1786
 Max. memory used in ccsd:                    1786
 Max. memory used in cckext:                 35330 (15 integral passes)



 **********************************************************************************************************************************
 DATASETS  * FILE   NREC   LENGTH (MB)   RECORD NAMES
              1      20       29.98       500      700      610      900      950      970     1000      129      960     1100   
                                          VAR     GEOM    BASINP   SYMINP    ZMAT    AOBASIS   BASIS     P2S    ABASIS      S 
                                         1400     1410     1200     1210     1080     1600     1650     1300     1700     1380   
                                           T        V       H0       H01     AOSYM     SMH    MOLCAS    ERIS     OPER     JKOP   

              3       5       14.77       500      610      700     1000     2100   
                                          VAR    BASINP    GEOM     BASIS     RHF  

 PROGRAMS   *        TOTAL      CISD       INT   RESTART
 CPU TIMES  *         0.41      0.13      0.16      0.02
 REAL TIME  *         1.11 SEC
 DISK USED  *        49.44 MB
 **********************************************************************************************************************************
 Molecular orbitals read from record     2100.3  Type=RHF/CANONICAL (state 1.1)
 Occupation numbers read from record     2100.3  Type=RHF/RHF (state 1.1)
 Orbital energies read from record       2100.3  Type=RHF/CANONICAL (state 1.1)
 Redundancy group numbers read from rec  2100.3  Type=RHF/RHF (state 1.1)

 CISD/6-31G energy=   -459.652138598608

            CISD
   -459.65213860
 **********************************************************************************************************************************
 Molpro calculation terminated
