
 Primary working directories    : /scr/yuriaoto/job.023409/molpro.AusXUVqRW5
 Secondary working directories  : /scr/yuriaoto/job.023409/molpro.AusXUVqRW5
 Wavefunction directory         : /scr/yuriaoto/job.023409/
 Main file repository           : /scr/yuriaoto/job.023409/molpro.AusXUVqRW5/

 id        : yuriaoto

 Nodes             nprocs
 t-rex.ufabc.int.br    1

 Using customized tuning parameters: mindgm=8; mindgv=16; mindgc=1; mindgr=1; noblas=0; minvec=7
 default implementation of scratch files=df  


 Variables initialized (933), CPU time= 0.00 sec
 ***,
 memory,40,m
 gprint,orbital,basis,civector
 gthresh,thrprint=0,printci=0.0
 file,3,wfu.dat,old
 
 {cisd,CC_NORM_MAX=10.0
 thresh,printci=0.0,ENERGY=1.0E-10,COEFF=1.0E-12
 print,ref=1
 core,0
 wf,18,1,0;
 }
 
 Commands  initialized (760), CPU time= 0.00 sec, 617 directives.
 Default parameters read. Elapsed time= 0.04 sec

 Checking input...
 Passed
1


                                         ***  PROGRAM SYSTEM MOLPRO  ***
                                       Copyright, TTI GmbH Stuttgart, 2015
                                    Version 2019.2 linked Abr  7 2019 15:10:35


 **********************************************************************************************************************************
 LABEL *                                                                                 
  64 bit serial version                                                                  DATE: 02-Jun-20          TIME: 00:21:34  
 **********************************************************************************************************************************

 SHA1:             3a8a58c585c929645742fb5a1b7541a4ad1da699
 **********************************************************************************************************************************


 THRESHOLDS:

 ZERO    =  1.00D-12  ONEINT  =  1.00D-12  TWOINT  =  1.00D-11  PREFAC  =  1.00D-14  XXXXXX  =  1.00D-09  EORDER  =  1.00D-04
 ENERGY  =  0.00D+00  ETEST   =  0.00D+00  EDENS   =  0.00D+00  THRDEDEF=  1.00D-06  GRADIENT=  1.00D-02  STEP    =  1.00D-03
 ORBITAL =  1.00D-05  CIVEC   =  1.00D-05  COEFF   =  1.00D-04  PRINTCI =  0.00D+00  PUNCHCI =  9.90D+01  OPTGRAD =  3.00D-04
 OPTENERG=  1.00D-06  OPTSTEP =  3.00D-04  THRGRAD =  1.00D-10  COMPRESS=  1.00D-11  VARMIN  =  1.00D-07  VARMAX  =  1.00D-03
 THRDOUB =  0.00D+00  THRDIV  =  1.00D-05  THRRED  =  1.00D-07  THRPSP  =  1.00D+00  THRDC   =  1.00D-10  THRCS   =  1.00D-10
 THRNRM  =  1.00D-08  THREQ   =  0.00D+00  THRDE   =  1.00D+00  THRREF  =  1.00D-05  SPARFAC =  1.00D+00  THRDLP  =  1.00D-07
 THRDIA  =  1.00D-10  THRDLS  =  1.00D-07  THRGPS  =  0.00D+00  THRKEX  =  0.00D+00  THRDIS  =  2.00D-01  THRVAR  =  1.00D-10
 THRLOC  =  1.00D-06  THRGAP  =  1.00D-06  THRLOCT = -1.00D+00  THRGAPT = -1.00D+00  THRORB  =  1.00D-06  THRMLTP =  0.00D+00
 THRCPQCI=  1.00D-10  KEXTA   =  0.00D+00  THRCOARS=  0.00D+00  SYMTOL  =  1.00D-06  GRADTOL =  1.00D-06  THROVL  =  1.00D-08
 THRORTH =  1.00D-08  GRID    =  1.00D-06  GRIDMAX =  1.00D-03  DTMAX   =  0.00D+00  THROCCDE=  1.00D-01  THROCCDE=  1.00D-01
 THRPRINT=  0.00D+00


 Variable memory set to   40000000 words,  buffer space 



 Permanent file  3  wfu.dat  assigned.  Implementation=df    Size= 14.08 MB


 PROGRAM * RESTART 


 Reading variables from file 3

 _FNUC           =      0.00000000
 _BASIS          =    6-31G
 _NELEC          =     18.00000000
 _PROGRAM        =    RHF-SCF
 _DMZ            =     -0.64056636
 _DMX_SCF        =      0.00000000
 _DMY_SCF        =      0.00000000
 _DMZ_SCF        =     -0.64056636
 _HOMO           =      2.20000000
 _EHOMO          =     -0.49295113
 _LUMO           =      6.10000000
 _ELUMO          =      0.32493986
 _ENERGY         =   -459.60831721
 _ENERGY_METHOD  =    RHF
 _ENERGY_BASIS   =    6-31G
 _ENUC           =     11.33333333
 _EPS1(1:9)      =   -104.81304705   -10.58851940    -8.06562948    -1.29348723    -0.68951886     0.32493986
                        0.41098157     0.59951917     1.47579847
 _EPS2(1:3)      =     -8.04437587    -0.49295113     0.61252577
 _EPS3(1:3)      =     -8.04437587    -0.49295113     0.61252577
 _IPROC_MPP      =      0.00000000
 _IPROC_MPPX     =      0.00000000
 _ORBITAL        =   2100.30000000
 _STATUS         =      1.00000000
 _DATE           =    31-May-20
 _LASTORB        =    RHF
 _OUTPUT         =    /scr/yuriaoto/job.023311/RHF.xml
 _PGROUP         =    C2v 
 _TIME           =    01:19:24
 R               =      1.50000000

 Geometry written to block  1 of record 700


 **********************************************************************************************************************************
 DATASETS  * FILE   NREC   LENGTH (MB)   RECORD NAMES
              3       5       14.77       500      610      700     1000     2100   
                                          VAR    BASINP    GEOM     BASIS     RHF  

 PROGRAMS   *        TOTAL   RESTART
 CPU TIMES  *         0.11      0.01
 REAL TIME  *         0.15 SEC
 DISK USED  *        26.84 MB
 **********************************************************************************************************************************


 Recomputing integrals since basis changed


 Using spherical harmonics

 Library entry H      S 6-31G                selected for orbital group  1
 Library entry CL     S 6-31G                selected for orbital group  2
 Library entry CL     P 6-31G                selected for orbital group  2


 PROGRAM * SEWARD (Integral evaluation for generally contracted gaussian basis sets)     Author: Roland Lindh, 1990

 Geometry written to block  1 of record 700

 Orientation using atomic masses  
 Molecule type: Linear
 User-specified symmetry elements: X,Y
 Symmetry elements: X,Y
 Rotational constants:     818.4131427    818.4131427      0.0000000 GHz  (calculated with average atomic masses)

 Point group  C2v 



 ATOMIC COORDINATES

 NR  ATOM    CHARGE       X              Y              Z

   1  H       1.00    0.000000000    0.000000000   -1.458533433
   2  CL     17.00    0.000000000    0.000000000    0.041466567

 Bond lengths in Bohr (Angstrom)

 1-2  1.500000000
     ( 0.793765816)


 BASIS DATA

   Nr Sym  Nuc  Type         Exponents   Contraction coefficients

    1.1 A1    1  1s          18.731137     0.033495
                              2.825394     0.234727
                              0.640122     0.813757
    2.1 A1    1  1s           0.161278     1.000000
    3.1 A1    2  1s       25180.100000     0.001833
                           3780.350000     0.014034
                            860.474000     0.069097
                            242.145000     0.237452
                             77.334900     0.483034
                             26.247000     0.339856
    4.1 A1    2  1s         491.765000    -0.002297
                            116.984000    -0.030714
                             37.415300    -0.112528
                             13.783400     0.045016
                              5.452150     0.589353
                              2.225880     0.465206
    5.1 A1    2  1s           3.186490    -0.251827
                              1.144270     0.061589
                              0.420377     1.060180
    6.1 A1    2  1s           0.142657     1.000000
    7.1 A1    2  2pz        491.765000     0.003989
                            116.984000     0.030318
                             37.415300     0.129880
                             13.783400     0.327951
                              5.452150     0.453527
                              2.225880     0.252154
    8.1 A1    2  2pz          3.186490    -0.014299
                              1.144270     0.323572
                              0.420377     0.743507
    9.1 A1    2  2pz          0.142657     1.000000
    1.2 B1    2  2px        491.765000     0.003989
                            116.984000     0.030318
                             37.415300     0.129880
                             13.783400     0.327951
                              5.452150     0.453527
                              2.225880     0.252154
    2.2 B1    2  2px          3.186490    -0.014299
                              1.144270     0.323572
                              0.420377     0.743507
    3.2 B1    2  2px          0.142657     1.000000
    1.3 B2    2  2py        491.765000     0.003989
                            116.984000     0.030318
                             37.415300     0.129880
                             13.783400     0.327951
                              5.452150     0.453527
                              2.225880     0.252154
    2.3 B2    2  2py          3.186490    -0.014299
                              1.144270     0.323572
                              0.420377     0.743507
    3.3 B2    2  2py          0.142657     1.000000

 NUCLEAR CHARGE:                   18
 NUMBER OF PRIMITIVE AOS:          50
 NUMBER OF SYMMETRY AOS:           50
 NUMBER OF CONTRACTIONS:           15   (    9A1  +    3B1  +    3B2  +    0A2  )
 NUMBER OF CORE ORBITALS:           5   (    3A1  +    1B1  +    1B2  +    0A2  )
 NUMBER OF VALENCE ORBITALS:        5   (    3A1  +    1B1  +    1B2  +    0A2  )


 NUCLEAR REPULSION ENERGY   11.33333333

 Eigenvalues of metric

         1 0.130E-01 0.193E+00 0.223E+00 0.485E+00 0.687E+00 0.973E+00 0.118E+01 0.187E+01
         2 0.323E+00 0.942E+00 0.174E+01
         3 0.323E+00 0.942E+00 0.174E+01


 Contracted 2-electron integrals neglected if value below      1.0D-11
 AO integral compression algorithm  1   Integral accuracy      1.0D-11

     0.262 MB (compressed) written to integral file (100.0%)


 NUMBER OF SORTED TWO-ELECTRON INTEGRALS:       2805.     BUFFER LENGTH:  32768
 NUMBER OF SEGMENTS:   1  SEGMENT LENGTH:       2805      RECORD LENGTH: 524288

 Memory used in sort:       0.56 MW

 SORT1 READ        5185. AND WROTE        2181. INTEGRALS IN      1 RECORDS. CPU TIME:     0.00 SEC, REAL TIME:     0.01 SEC
 SORT2 READ        2181. AND WROTE        2805. INTEGRALS IN      1 RECORDS. CPU TIME:     0.00 SEC, REAL TIME:     0.01 SEC

 FILE SIZES:   FILE 1:    30.2 MBYTE,  FILE 4:     4.2 MBYTE,   TOTAL:     34.4 MBYTE

 OPERATOR DM      FOR CENTER  0  COORDINATES:    0.000000    0.000000    0.000000


 **********************************************************************************************************************************
 DATASETS  * FILE   NREC   LENGTH (MB)   RECORD NAMES
              1      19       29.97       500      700      610      900      950      970     1000      129      960     1100   
                                          VAR     GEOM    BASINP   SYMINP    ZMAT    AOBASIS   BASIS     P2S    ABASIS      S 
                                         1400     1410     1200     1210     1080     1600     1650     1300     1700   
                                           T        V       H0       H01     AOSYM     SMH    MOLCAS    ERIS     OPER   

              3       5       14.77       500      610      700     1000     2100   
                                          VAR    BASINP    GEOM     BASIS     RHF  

 PROGRAMS   *        TOTAL       INT   RESTART
 CPU TIMES  *         0.33      0.22      0.01
 REAL TIME  *         0.54 SEC
 DISK USED  *        49.44 MB
 **********************************************************************************************************************************


 PROGRAM * CISD (Closed-shell CI(SD))     Authors: C. Hampel, H.-J. Werner, 1991, M. Deegan, P.J. Knowles, 1992


 Input parameters for THRESH:

 ENERGY   =    1.00D-10
 COEFF    =    1.00D-12
 PRINTCI  =    0.000000
 THRPRINT =    0.000000

 Convergence thresholds:  THRVAR = 1.00D-24  THRDEN = 1.00D-10

 Number of closed-shell orbitals:   9 (   5   2   2 )
 Number of external orbitals:       6 (   4   1   1 )

 Molecular orbitals read from record     2100.3  Type=RHF/CANONICAL (state 1.1)

 Number of N-1 electron functions:               9
 Number of N-2 electron functions:              45
 Number of singly external CSFs:                24
 Number of doubly external CSFs:               492
 Total number of CSFs:                         517

 Length of J-op  integral file:               0.00 MB
 Length of K-op  integral file:               0.04 MB

 Integral transformation finished. Total CPU:   0.00 sec, npass=  1  Memory used:   0.07 MW

 Reference energy:                   -459.60831721

 MP2 singlet pair energy:              -0.02869034
 MP2 triplet pair energy:              -0.01086841
 MP2 correlation energy:               -0.03955875
 MP2 total energy:                   -459.64787597

 SCS-MP2 correlation energy:           -0.04119097   (PS=  1.200000  PT=  0.333333)
 SCS-MP2 total energy:               -459.64950819

 ITER.      SQ.NORM     CORR.ENERGY   TOTAL ENERGY   ENERGY CHANGE        DEN1      VAR(S)    VAR(P)  DIIS     TIME  TIME/IT
   1      1.01752911    -0.04549950  -459.65381671    -0.00594075    -0.00449980  0.18D-03  0.29D-03  1  1     0.03     0.01
   2      1.01914032    -0.04583176  -459.65414897    -0.00033226    -0.00170047  0.10D-05  0.84D-05  2  2     0.03     0.01
   3      1.01937362    -0.04596109  -459.65427830    -0.00012933    -0.00019633  0.14D-06  0.58D-06  3  3     0.04     0.01
   4      1.01939885    -0.04596517  -459.65428238    -0.00000408    -0.00001062  0.25D-08  0.76D-08  4  4     0.04     0.01
   5      1.01939894    -0.04596555  -459.65428277    -0.00000038     0.00000047  0.22D-09  0.23D-09  5  5     0.05     0.01
   6      1.01939897    -0.04596556  -459.65428277    -0.00000000    -0.00000005  0.12D-10  0.76D-11  6  6     0.05     0.01
   7      1.01939896    -0.04596556  -459.65428277    -0.00000000    -0.00000000  0.31D-12  0.33D-12  6  1     0.06     0.01
   8      1.01939896    -0.04596556  -459.65428277    -0.00000000     0.00000000  0.74D-14  0.13D-13  6  2     0.06     0.01
   9      1.01939896    -0.04596556  -459.65428277    -0.00000000     0.00000000  0.31D-15  0.37D-15  6  3     0.07     0.01
  10      1.01939896    -0.04596556  -459.65428277     0.00000000    -0.00000000  0.16D-16  0.14D-16  6  4     0.07     0.01
  11      1.01939896    -0.04596556  -459.65428277     0.00000000    -0.00000000  0.87D-18  0.72D-18  6  5     0.08     0.01
  12      1.01939896    -0.04596556  -459.65428277     0.00000000    -0.00000000  0.25D-19  0.34D-19  6  6     0.08     0.01
  13      1.01939896    -0.04596556  -459.65428277     0.00000000    -0.00000000  0.43D-21  0.10D-20  6  1     0.09     0.01
  14      1.01939896    -0.04596556  -459.65428277     0.00000000    -0.00000000  0.96D-23  0.37D-22  6  2     0.09     0.01
  15      1.01939896    -0.04596556  -459.65428277     0.00000000    -0.00000000  0.38D-24  0.14D-23  6  3     0.09     0.01
  16      1.01939896    -0.04596556  -459.65428277     0.00000000    -0.00000000  0.30D-25  0.55D-25  6  4     0.10     0.01


 ! DIPOLE MOMENTS:                      0.00000000     0.00000000    -0.63841733



 Norm of t1 vector:      0.01772572      S-energy:    -0.00001417      T1 diagnostic:  0.00295429

 Singles amplitudes (print threshold =  0.000E+00):

         I         SYM. A    A   T(IA)

         1         1         1      0.00000111
         1         1         2     -0.00000146
         1         1         3      0.00000333
         1         1         4      0.00000127
         2         1         1     -0.00011942
         2         1         2      0.00011333
         2         1         3     -0.00020973
         2         1         4     -0.00013030
         3         1         1      0.00018942
         3         1         2     -0.00019326
         3         1         3     -0.00036834
         3         1         4      0.00034283
         4         1         1     -0.00008829
         4         1         2     -0.00311918
         4         1         3      0.00167315
         4         1         4     -0.00063708
         5         1         1     -0.00089875
         5         1         2      0.00201271
         5         1         3      0.00592665
         5         1         4     -0.00111833
         6         2         1     -0.00059568
         7         2         1      0.00713440
         8         3         1     -0.00059568
         9         3         1      0.00713440

 Doubles amplitudes (print threshold =  0.000E+00):

         I         J         SYM. A    SYM. B    A         B      T(IJ, AB)

         1         1         1         1         1         1     -0.00000753
         1         1         1         1         1         2      0.00001295
         1         1         1         1         1         3     -0.00000678
         1         1         1         1         1         4     -0.00001919
         1         1         1         1         2         1      0.00001295
         1         1         1         1         2         2     -0.00001386
         1         1         1         1         2         3      0.00000809
         1         1         1         1         2         4      0.00002726
         1         1         1         1         3         1     -0.00000678
         1         1         1         1         3         2      0.00000809
         1         1         1         1         3         3     -0.00004865
         1         1         1         1         3         4      0.00000229
         1         1         1         1         4         1     -0.00001919
         1         1         1         1         4         2      0.00002726
         1         1         1         1         4         3      0.00000229
         1         1         1         1         4         4     -0.00004856
         1         1         2         2         1         1     -0.00004333
         1         1         3         3         1         1     -0.00004333
         2         1         1         1         1         1      0.00000237
         2         1         1         1         1         2     -0.00000122
         2         1         1         1         1         3      0.00001521
         2         1         1         1         1         4     -0.00000189
         2         1         1         1         2         1     -0.00000127
         2         1         1         1         2         2      0.00000337
         2         1         1         1         2         3     -0.00001984
         2         1         1         1         2         4      0.00000365
         2         1         1         1         3         1      0.00001443
         2         1         1         1         3         2     -0.00001889
         2         1         1         1         3         3      0.00000477
         2         1         1         1         3         4      0.00003298
         2         1         1         1         4         1     -0.00000070
         2         1         1         1         4         2      0.00000223
         2         1         1         1         4         3      0.00003320
         2         1         1         1         4         4     -0.00001473
         2         1         2         2         1         1     -0.00003532
         2         1         3         3         1         1     -0.00003532
         2         2         1         1         1         1     -0.00013042
         2         2         1         1         1         2      0.00019437
         2         2         1         1         1         3     -0.00018939
         2         2         1         1         1         4     -0.00025524
         2         2         1         1         2         1      0.00019437
         2         2         1         1         2         2     -0.00022089
         2         2         1         1         2         3      0.00023018
         2         2         1         1         2         4      0.00033016
         2         2         1         1         3         1     -0.00018939
         2         2         1         1         3         2      0.00023018
         2         2         1         1         3         3     -0.00063288
         2         2         1         1         3         4     -0.00018813
         2         2         1         1         4         1     -0.00025524
         2         2         1         1         4         2      0.00033016
         2         2         1         1         4         3     -0.00018813
         2         2         1         1         4         4     -0.00051417
         2         2         2         2         1         1     -0.00033988
         2         2         3         3         1         1     -0.00033988
         3         1         1         1         1         1      0.00000195
         3         1         1         1         1         2     -0.00000220
         3         1         1         1         1         3     -0.00001628
         3         1         1         1         1         4      0.00001054
         3         1         1         1         2         1     -0.00000115
         3         1         1         1         2         2      0.00000147
         3         1         1         1         2         3      0.00001791
         3         1         1         1         2         4     -0.00000972
         3         1         1         1         3         1      0.00001553
         3         1         1         1         3         2     -0.00001987
         3         1         1         1         3         3     -0.00000668
         3         1         1         1         3         4      0.00003900
         3         1         1         1         4         1     -0.00000146
         3         1         1         1         4         2      0.00000190
         3         1         1         1         4         3     -0.00003669
         3         1         1         1         4         4      0.00001047
         3         1         2         2         1         1     -0.00000083
         3         1         3         3         1         1     -0.00000083
         3         2         1         1         1         1      0.00017378
         3         2         1         1         1         2     -0.00020554
         3         2         1         1         1         3      0.00017909
         3         2         1         1         1         4      0.00028611
         3         2         1         1         2         1     -0.00020749
         3         2         1         1         2         2      0.00026795
         3         2         1         1         2         3     -0.00019646
         3         2         1         1         2         4     -0.00039585
         3         2         1         1         3         1     -0.00021447
         3         2         1         1         3         2      0.00028159
         3         2         1         1         3         3     -0.00083126
         3         2         1         1         3         4     -0.00018254
         3         2         1         1         4         1      0.00042121
         3         2         1         1         4         2     -0.00054673
         3         2         1         1         4         3      0.00065986
         3         2         1         1         4         4      0.00066196
         3         2         2         2         1         1      0.00000201
         3         2         3         3         1         1      0.00000201
         3         3         1         1         1         1     -0.00015627
         3         3         1         1         1         2      0.00028647
         3         3         1         1         1         3      0.00027648
         3         3         1         1         1         4     -0.00052477
         3         3         1         1         2         1      0.00028647
         3         3         1         1         2         2     -0.00033225
         3         3         1         1         2         3     -0.00032110
         3         3         1         1         2         4      0.00069952
         3         3         1         1         3         1      0.00027648
         3         3         1         1         3         2     -0.00032110
         3         3         1         1         3         3     -0.00123451
         3         3         1         1         3         4      0.00100323
         3         3         1         1         4         1     -0.00052477
         3         3         1         1         4         2      0.00069952
         3         3         1         1         4         3      0.00100323
         3         3         1         1         4         4     -0.00150451
         3         3         2         2         1         1     -0.00020199
         3         3         3         3         1         1     -0.00020199
         4         1         1         1         1         1      0.00000008
         4         1         1         1         1         2     -0.00000169
         4         1         1         1         1         3     -0.00000743
         4         1         1         1         1         4      0.00000460
         4         1         1         1         2         1     -0.00000275
         4         1         1         1         2         2      0.00000150
         4         1         1         1         2         3      0.00001255
         4         1         1         1         2         4     -0.00000987
         4         1         1         1         3         1     -0.00000378
         4         1         1         1         3         2      0.00000558
         4         1         1         1         3         3      0.00000255
         4         1         1         1         3         4     -0.00001052
         4         1         1         1         4         1      0.00000159
         4         1         1         1         4         2     -0.00000299
         4         1         1         1         4         3     -0.00001628
         4         1         1         1         4         4      0.00001033
         4         1         2         2         1         1      0.00002352
         4         1         3         3         1         1      0.00002352
         4         2         1         1         1         1      0.00007044
         4         2         1         1         1         2     -0.00009897
         4         2         1         1         1         3      0.00019552
         4         2         1         1         1         4     -0.00001548
         4         2         1         1         2         1     -0.00007178
         4         2         1         1         2         2      0.00000119
         4         2         1         1         2         3     -0.00037611
         4         2         1         1         2         4     -0.00007611
         4         2         1         1         3         1      0.00010866
         4         2         1         1         3         2     -0.00018179
         4         2         1         1         3         3      0.00005123
         4         2         1         1         3         4      0.00020640
         4         2         1         1         4         1      0.00011785
         4         2         1         1         4         2     -0.00031190
         4         2         1         1         4         3      0.00029048
         4         2         1         1         4         4     -0.00004235
         4         2         2         2         1         1     -0.00034280
         4         2         3         3         1         1     -0.00034280
         4         3         1         1         1         1     -0.00015371
         4         3         1         1         1         2      0.00014681
         4         3         1         1         1         3      0.00035590
         4         3         1         1         1         4     -0.00032225
         4         3         1         1         2         1      0.00014024
         4         3         1         1         2         2      0.00018448
         4         3         1         1         2         3     -0.00033631
         4         3         1         1         2         4      0.00053602
         4         3         1         1         3         1     -0.00007560
         4         3         1         1         3         2      0.00028120
         4         3         1         1         3         3      0.00010956
         4         3         1         1         3         4     -0.00008215
         4         3         1         1         4         1     -0.00028557
         4         3         1         1         4         2      0.00051411
         4         3         1         1         4         3      0.00062987
         4         3         1         1         4         4     -0.00047694
         4         3         2         2         1         1      0.00004287
         4         3         3         3         1         1      0.00004287
         4         4         1         1         1         1     -0.00781421
         4         4         1         1         1         2      0.00302276
         4         4         1         1         1         3     -0.00180961
         4         4         1         1         1         4     -0.01060298
         4         4         1         1         2         1      0.00302276
         4         4         1         1         2         2     -0.01351072
         4         4         1         1         2         3      0.00043554
         4         4         1         1         2         4     -0.00423187
         4         4         1         1         3         1     -0.00180961
         4         4         1         1         3         2      0.00043554
         4         4         1         1         3         3     -0.00377387
         4         4         1         1         3         4     -0.00271660
         4         4         1         1         4         1     -0.01060298
         4         4         1         1         4         2     -0.00423187
         4         4         1         1         4         3     -0.00271660
         4         4         1         1         4         4     -0.02208173
         4         4         2         2         1         1     -0.00667339
         4         4         3         3         1         1     -0.00667339
         5         1         1         1         1         1     -0.00000014
         5         1         1         1         1         2     -0.00000106
         5         1         1         1         1         3     -0.00000162
         5         1         1         1         1         4      0.00000121
         5         1         1         1         2         1      0.00000206
         5         1         1         1         2         2     -0.00000307
         5         1         1         1         2         3     -0.00000530
         5         1         1         1         2         4      0.00000677
         5         1         1         1         3         1     -0.00000742
         5         1         1         1         3         2      0.00000968
         5         1         1         1         3         3      0.00000849
         5         1         1         1         3         4     -0.00002061
         5         1         1         1         4         1      0.00000311
         5         1         1         1         4         2     -0.00000534
         5         1         1         1         4         3     -0.00000457
         5         1         1         1         4         4      0.00000940
         5         1         2         2         1         1      0.00001201
         5         1         3         3         1         1      0.00001201
         5         2         1         1         1         1     -0.00009407
         5         2         1         1         1         2      0.00009556
         5         2         1         1         1         3      0.00013699
         5         2         1         1         1         4     -0.00022681
         5         2         1         1         2         1     -0.00002500
         5         2         1         1         2         2      0.00012210
         5         2         1         1         2         3      0.00021172
         5         2         1         1         2         4     -0.00007798
         5         2         1         1         3         1      0.00026790
         5         2         1         1         3         2     -0.00026469
         5         2         1         1         3         3      0.00018019
         5         2         1         1         3         4      0.00053707
         5         2         1         1         4         1     -0.00022958
         5         2         1         1         4         2      0.00034680
         5         2         1         1         4         3      0.00013108
         5         2         1         1         4         4     -0.00046425
         5         2         2         2         1         1     -0.00018827
         5         2         3         3         1         1     -0.00018827
         5         3         1         1         1         1     -0.00000603
         5         3         1         1         1         2     -0.00022655
         5         3         1         1         1         3      0.00023124
         5         3         1         1         1         4     -0.00013665
         5         3         1         1         2         1     -0.00005709
         5         3         1         1         2         2     -0.00026875
         5         3         1         1         2         3      0.00020662
         5         3         1         1         2         4     -0.00029950
         5         3         1         1         3         1     -0.00015355
         5         3         1         1         3         2      0.00041847
         5         3         1         1         3         3      0.00029074
         5         3         1         1         3         4     -0.00028085
         5         3         1         1         4         1      0.00012170
         5         3         1         1         4         2     -0.00066717
         5         3         1         1         4         3      0.00010933
         5         3         1         1         4         4     -0.00007958
         5         3         2         2         1         1     -0.00010205
         5         3         3         3         1         1     -0.00010205
         5         4         1         1         1         1      0.00480277
         5         4         1         1         1         2      0.00078375
         5         4         1         1         1         3      0.00079481
         5         4         1         1         1         4      0.00690925
         5         4         1         1         2         1     -0.00145738
         5         4         1         1         2         2      0.00953293
         5         4         1         1         2         3      0.00208986
         5         4         1         1         2         4      0.00513150
         5         4         1         1         3         1     -0.00463577
         5         4         1         1         3         2      0.00694086
         5         4         1         1         3         3     -0.01005692
         5         4         1         1         3         4     -0.00111519
         5         4         1         1         4         1      0.00661415
         5         4         1         1         4         2      0.00840704
         5         4         1         1         4         3      0.00447354
         5         4         1         1         4         4      0.01532439
         5         4         2         2         1         1     -0.00404802
         5         4         3         3         1         1     -0.00404802
         5         5         1         1         1         1     -0.02248224
         5         5         1         1         1         2     -0.00711978
         5         5         1         1         1         3      0.00296151
         5         5         1         1         1         4     -0.01560318
         5         5         1         1         2         1     -0.00711978
         5         5         1         1         2         2     -0.00973534
         5         5         1         1         2         3     -0.00109510
         5         5         1         1         2         4     -0.01075818
         5         5         1         1         3         1      0.00296151
         5         5         1         1         3         2     -0.00109510
         5         5         1         1         3         3     -0.03000091
         5         5         1         1         3         4      0.00862070
         5         5         1         1         4         1     -0.01560318
         5         5         1         1         4         2     -0.01075818
         5         5         1         1         4         3      0.00862070
         5         5         1         1         4         4     -0.02249088
         5         5         2         2         1         1     -0.00538448
         5         5         3         3         1         1     -0.00538448
         6         6         1         1         1         1     -0.00005387
         6         6         1         1         1         2      0.00010871
         6         6         1         1         1         3     -0.00009755
         6         6         1         1         1         4     -0.00013748
         6         6         1         1         2         1      0.00010871
         6         6         1         1         2         2     -0.00007693
         6         6         1         1         2         3      0.00009430
         6         6         1         1         2         4      0.00017463
         6         6         1         1         3         1     -0.00009755
         6         6         1         1         3         2      0.00009430
         6         6         1         1         3         3     -0.00033724
         6         6         1         1         3         4     -0.00007944
         6         6         1         1         4         1     -0.00013748
         6         6         1         1         4         2      0.00017463
         6         6         1         1         4         3     -0.00007944
         6         6         1         1         4         4     -0.00030529
         6         6         2         2         1         1     -0.00218248
         6         6         3         3         1         1     -0.00019887
         7         6         1         1         1         1     -0.00013647
         7         6         1         1         1         2      0.00004791
         7         6         1         1         1         3     -0.00011107
         7         6         1         1         1         4     -0.00028241
         7         6         1         1         2         1     -0.00005462
         7         6         1         1         2         2      0.00003347
         7         6         1         1         2         3     -0.00007997
         7         6         1         1         2         4     -0.00005167
         7         6         1         1         3         1     -0.00002350
         7         6         1         1         3         2     -0.00002868
         7         6         1         1         3         3     -0.00008566
         7         6         1         1         3         4     -0.00003197
         7         6         1         1         4         1     -0.00018699
         7         6         1         1         4         2      0.00008144
         7         6         1         1         4         3     -0.00009076
         7         6         1         1         4         4     -0.00042490
         7         6         2         2         1         1      0.00073071
         7         6         3         3         1         1     -0.00012028
         7         7         1         1         1         1     -0.00893321
         7         7         1         1         1         2     -0.00393044
         7         7         1         1         1         3     -0.00067257
         7         7         1         1         1         4     -0.00602423
         7         7         1         1         2         1     -0.00393044
         7         7         1         1         2         2     -0.01233178
         7         7         1         1         2         3      0.00706017
         7         7         1         1         2         4     -0.00087353
         7         7         1         1         3         1     -0.00067257
         7         7         1         1         3         2      0.00706017
         7         7         1         1         3         3     -0.01053500
         7         7         1         1         3         4     -0.00124349
         7         7         1         1         4         1     -0.00602423
         7         7         1         1         4         2     -0.00087353
         7         7         1         1         4         3     -0.00124349
         7         7         1         1         4         4     -0.00569120
         7         7         2         2         1         1     -0.03959633
         7         7         3         3         1         1     -0.00373329
         8         8         1         1         1         1     -0.00005387
         8         8         1         1         1         2      0.00010871
         8         8         1         1         1         3     -0.00009755
         8         8         1         1         1         4     -0.00013748
         8         8         1         1         2         1      0.00010871
         8         8         1         1         2         2     -0.00007693
         8         8         1         1         2         3      0.00009430
         8         8         1         1         2         4      0.00017463
         8         8         1         1         3         1     -0.00009755
         8         8         1         1         3         2      0.00009430
         8         8         1         1         3         3     -0.00033724
         8         8         1         1         3         4     -0.00007944
         8         8         1         1         4         1     -0.00013748
         8         8         1         1         4         2      0.00017463
         8         8         1         1         4         3     -0.00007944
         8         8         1         1         4         4     -0.00030529
         8         8         2         2         1         1     -0.00019887
         8         8         3         3         1         1     -0.00218248
         9         8         1         1         1         1     -0.00013647
         9         8         1         1         1         2      0.00004791
         9         8         1         1         1         3     -0.00011107
         9         8         1         1         1         4     -0.00028241
         9         8         1         1         2         1     -0.00005462
         9         8         1         1         2         2      0.00003347
         9         8         1         1         2         3     -0.00007997
         9         8         1         1         2         4     -0.00005167
         9         8         1         1         3         1     -0.00002350
         9         8         1         1         3         2     -0.00002868
         9         8         1         1         3         3     -0.00008566
         9         8         1         1         3         4     -0.00003197
         9         8         1         1         4         1     -0.00018699
         9         8         1         1         4         2      0.00008144
         9         8         1         1         4         3     -0.00009076
         9         8         1         1         4         4     -0.00042490
         9         8         2         2         1         1     -0.00012028
         9         8         3         3         1         1      0.00073071
         9         9         1         1         1         1     -0.00893321
         9         9         1         1         1         2     -0.00393044
         9         9         1         1         1         3     -0.00067257
         9         9         1         1         1         4     -0.00602423
         9         9         1         1         2         1     -0.00393044
         9         9         1         1         2         2     -0.01233178
         9         9         1         1         2         3      0.00706017
         9         9         1         1         2         4     -0.00087353
         9         9         1         1         3         1     -0.00067257
         9         9         1         1         3         2      0.00706017
         9         9         1         1         3         3     -0.01053500
         9         9         1         1         3         4     -0.00124349
         9         9         1         1         4         1     -0.00602423
         9         9         1         1         4         2     -0.00087353
         9         9         1         1         4         3     -0.00124349
         9         9         1         1         4         4     -0.00569120
         9         9         2         2         1         1     -0.00373329
         9         9         3         3         1         1     -0.03959633
         6         1         1         2         1         1     -0.00001431
         6         1         1         2         2         1      0.00001997
         6         1         1         2         3         1     -0.00003281
         6         1         1         2         4         1     -0.00002033
         6         1         2         1         1         1      0.00001040
         6         1         2         1         1         2     -0.00001275
         6         1         2         1         1         3      0.00002213
         6         1         2         1         1         4      0.00001576
         6         2         1         2         1         1     -0.00015254
         6         2         1         2         2         1      0.00017479
         6         2         1         2         3         1     -0.00030585
         6         2         1         2         4         1     -0.00024385
         6         2         2         1         1         1     -0.00047426
         6         2         2         1         1         2      0.00057960
         6         2         2         1         1         3     -0.00095535
         6         2         2         1         1         4     -0.00070868
         6         3         1         2         1         1      0.00006396
         6         3         1         2         2         1     -0.00007444
         6         3         1         2         3         1     -0.00015167
         6         3         1         2         4         1      0.00020082
         6         3         2         1         1         1      0.00048402
         6         3         2         1         1         2     -0.00058523
         6         3         2         1         1         3     -0.00116259
         6         3         2         1         1         4      0.00142720
         6         4         1         2         1         1     -0.00018675
         6         4         1         2         2         1      0.00004557
         6         4         1         2         3         1     -0.00016990
         6         4         1         2         4         1     -0.00038340
         6         4         2         1         1         1      0.00029997
         6         4         2         1         1         2     -0.00056866
         6         4         2         1         1         3      0.00032107
         6         4         2         1         1         4      0.00051484
         6         5         1         2         1         1     -0.00005672
         6         5         1         2         2         1     -0.00000526
         6         5         1         2         3         1     -0.00019838
         6         5         1         2         4         1     -0.00005143
         6         5         2         1         1         1     -0.00011082
         6         5         2         1         1         2      0.00014195
         6         5         2         1         1         3      0.00085178
         6         5         2         1         1         4     -0.00046388
         7         1         1         2         1         1      0.00000978
         7         1         1         2         2         1     -0.00000551
         7         1         1         2         3         1      0.00001432
         7         1         1         2         4         1      0.00001439
         7         1         2         1         1         1     -0.00000175
         7         1         2         1         1         2      0.00000221
         7         1         2         1         1         3     -0.00000428
         7         1         2         1         1         4     -0.00000265
         7         2         1         2         1         1     -0.00024357
         7         2         1         2         2         1     -0.00007139
         7         2         1         2         3         1     -0.00012658
         7         2         1         2         4         1     -0.00030720
         7         2         2         1         1         1      0.00016487
         7         2         2         1         1         2     -0.00026442
         7         2         2         1         1         3      0.00038855
         7         2         2         1         1         4      0.00016823
         7         3         1         2         1         1      0.00007871
         7         3         1         2         2         1     -0.00000653
         7         3         1         2         3         1     -0.00009876
         7         3         1         2         4         1      0.00018279
         7         3         2         1         1         1     -0.00027157
         7         3         2         1         1         2      0.00034661
         7         3         2         1         1         3      0.00066889
         7         3         2         1         1         4     -0.00064507
         7         4         1         2         1         1     -0.00644007
         7         4         1         2         2         1      0.00203237
         7         4         1         2         3         1     -0.00487603
         7         4         1         2         4         1     -0.00667168
         7         4         2         1         1         1     -0.00963694
         7         4         2         1         1         2      0.01184414
         7         4         2         1         1         3     -0.00894581
         7         4         2         1         1         4     -0.00798082
         7         5         1         2         1         1     -0.00209358
         7         5         1         2         2         1      0.00100158
         7         5         1         2         3         1     -0.00902120
         7         5         1         2         4         1     -0.00050832
         7         5         2         1         1         1      0.00033900
         7         5         2         1         1         2     -0.00341121
         7         5         2         1         1         3     -0.02374151
         7         5         2         1         1         4      0.00263229
         8         1         1         3         1         1     -0.00001431
         8         1         1         3         2         1      0.00001997
         8         1         1         3         3         1     -0.00003281
         8         1         1         3         4         1     -0.00002033
         8         1         3         1         1         1      0.00001040
         8         1         3         1         1         2     -0.00001275
         8         1         3         1         1         3      0.00002213
         8         1         3         1         1         4      0.00001576
         8         2         1         3         1         1     -0.00015254
         8         2         1         3         2         1      0.00017479
         8         2         1         3         3         1     -0.00030585
         8         2         1         3         4         1     -0.00024385
         8         2         3         1         1         1     -0.00047426
         8         2         3         1         1         2      0.00057960
         8         2         3         1         1         3     -0.00095535
         8         2         3         1         1         4     -0.00070868
         8         3         1         3         1         1      0.00006396
         8         3         1         3         2         1     -0.00007444
         8         3         1         3         3         1     -0.00015167
         8         3         1         3         4         1      0.00020082
         8         3         3         1         1         1      0.00048402
         8         3         3         1         1         2     -0.00058523
         8         3         3         1         1         3     -0.00116259
         8         3         3         1         1         4      0.00142720
         8         4         1         3         1         1     -0.00018675
         8         4         1         3         2         1      0.00004557
         8         4         1         3         3         1     -0.00016990
         8         4         1         3         4         1     -0.00038340
         8         4         3         1         1         1      0.00029997
         8         4         3         1         1         2     -0.00056866
         8         4         3         1         1         3      0.00032107
         8         4         3         1         1         4      0.00051484
         8         5         1         3         1         1     -0.00005672
         8         5         1         3         2         1     -0.00000526
         8         5         1         3         3         1     -0.00019838
         8         5         1         3         4         1     -0.00005143
         8         5         3         1         1         1     -0.00011082
         8         5         3         1         1         2      0.00014195
         8         5         3         1         1         3      0.00085178
         8         5         3         1         1         4     -0.00046388
         9         1         1         3         1         1      0.00000978
         9         1         1         3         2         1     -0.00000551
         9         1         1         3         3         1      0.00001432
         9         1         1         3         4         1      0.00001439
         9         1         3         1         1         1     -0.00000175
         9         1         3         1         1         2      0.00000221
         9         1         3         1         1         3     -0.00000428
         9         1         3         1         1         4     -0.00000265
         9         2         1         3         1         1     -0.00024357
         9         2         1         3         2         1     -0.00007139
         9         2         1         3         3         1     -0.00012658
         9         2         1         3         4         1     -0.00030720
         9         2         3         1         1         1      0.00016487
         9         2         3         1         1         2     -0.00026442
         9         2         3         1         1         3      0.00038855
         9         2         3         1         1         4      0.00016823
         9         3         1         3         1         1      0.00007871
         9         3         1         3         2         1     -0.00000653
         9         3         1         3         3         1     -0.00009876
         9         3         1         3         4         1      0.00018279
         9         3         3         1         1         1     -0.00027157
         9         3         3         1         1         2      0.00034661
         9         3         3         1         1         3      0.00066889
         9         3         3         1         1         4     -0.00064507
         9         4         1         3         1         1     -0.00644007
         9         4         1         3         2         1      0.00203237
         9         4         1         3         3         1     -0.00487603
         9         4         1         3         4         1     -0.00667168
         9         4         3         1         1         1     -0.00963694
         9         4         3         1         1         2      0.01184414
         9         4         3         1         1         3     -0.00894581
         9         4         3         1         1         4     -0.00798082
         9         5         1         3         1         1     -0.00209358
         9         5         1         3         2         1      0.00100158
         9         5         1         3         3         1     -0.00902120
         9         5         1         3         4         1     -0.00050832
         9         5         3         1         1         1      0.00033900
         9         5         3         1         1         2     -0.00341121
         9         5         3         1         1         3     -0.02374151
         9         5         3         1         1         4      0.00263229
         8         6         2         3         1         1     -0.00022653
         8         6         3         2         1         1     -0.00175708
         8         7         2         3         1         1     -0.00015631
         8         7         3         2         1         1      0.00100730
         9         6         2         3         1         1     -0.00015631
         9         6         3         2         1         1      0.00100730
         9         7         2         3         1         1     -0.00772436
         9         7         3         2         1         1     -0.02813868


 RESULTS
 =======

  Reference energy                   -459.608317213086

  Correlated core orbitals:             1.1       2.1       3.1       1.2       1.3
  Orbital energies:                  -104.8130  -10.5885   -8.0656   -8.0444   -8.0444

  CISD core-core energy                -0.001524977918
  CISD core-valence energy             -0.000717157035
  CISD valence correlation energy      -0.043723421719

  CISD singlet pair energy             -0.035240172337
  CISD triplet pair energy             -0.010711216679
  CISD correlation energy              -0.045965556672

 !CISD total energy                  -459.654282769757

 Timing summary (sec):

 STEP                 CPU(USER)    SYS     CPU(TOT)    WALL
 Transformation          0.01      0.00      0.01      0.01
 CCSD iterations         0.09      0.02      0.11      0.11

 Program statistics:

 Available memory in ccsd:                39998876
 Min. memory needed in ccsd:                  5855
 Max. memory used in ccsd:                    5855
 Max. memory used in cckext:                 41405 (16 integral passes)



 **********************************************************************************************************************************
 DATASETS  * FILE   NREC   LENGTH (MB)   RECORD NAMES
              1      20       30.01       500      700      610      900      950      970     1000      129      960     1100   
                                          VAR     GEOM    BASINP   SYMINP    ZMAT    AOBASIS   BASIS     P2S    ABASIS      S 
                                         1400     1410     1200     1210     1080     1600     1650     1300     1700     1380   
                                           T        V       H0       H01     AOSYM     SMH    MOLCAS    ERIS     OPER     JKOP   

              3       5       14.77       500      610      700     1000     2100   
                                          VAR    BASINP    GEOM     BASIS     RHF  

 PROGRAMS   *        TOTAL      CISD       INT   RESTART
 CPU TIMES  *         0.51      0.18      0.22      0.01
 REAL TIME  *         0.73 SEC
 DISK USED  *        49.44 MB
 **********************************************************************************************************************************
 Molecular orbitals read from record     2100.3  Type=RHF/CANONICAL (state 1.1)
 Occupation numbers read from record     2100.3  Type=RHF/RHF (state 1.1)
 Orbital energies read from record       2100.3  Type=RHF/CANONICAL (state 1.1)
 Redundancy group numbers read from rec  2100.3  Type=RHF/RHF (state 1.1)

 CISD/6-31G energy=   -459.654282769757

            CISD
   -459.65428277
 **********************************************************************************************************************************
 Molpro calculation terminated
