
 Primary working directories    : /scr/yuriaoto/job.023444/molpro.BkOU1BlstA
 Secondary working directories  : /scr/yuriaoto/job.023444/molpro.BkOU1BlstA
 Wavefunction directory         : /scr/yuriaoto/job.023444/
 Main file repository           : /scr/yuriaoto/job.023444/molpro.BkOU1BlstA/

 id        : yuriaoto

 Nodes             nprocs
 t-rex.ufabc.int.br    1

 Using customized tuning parameters: mindgm=8; mindgv=16; mindgc=1; mindgr=1; noblas=0; minvec=7
 default implementation of scratch files=df  


 Variables initialized (933), CPU time= 0.01 sec
 ***,
 memory,40,m
 gprint,orbital,basis,civector
 gthresh,thrprint=0,printci=0.0
 file,3,wfu.dat,old
 
 {cisd,CC_NORM_MAX=10.0
 thresh,printci=0.0,ENERGY=1.0E-10,COEFF=1.0E-12
 print,ref=1
 core,0
 wf,6,1,0;
 }
 
 Commands  initialized (760), CPU time= 0.01 sec, 617 directives.
 Default parameters read. Elapsed time= 0.04 sec

 Checking input...
 Passed
1


                                         ***  PROGRAM SYSTEM MOLPRO  ***
                                       Copyright, TTI GmbH Stuttgart, 2015
                                    Version 2019.2 linked Abr  7 2019 15:10:35


 **********************************************************************************************************************************
 LABEL *                                                                                 
  64 bit serial version                                                                  DATE: 02-Jun-20          TIME: 00:35:04  
 **********************************************************************************************************************************

 SHA1:             3a8a58c585c929645742fb5a1b7541a4ad1da699
 **********************************************************************************************************************************


 THRESHOLDS:

 ZERO    =  1.00D-12  ONEINT  =  1.00D-12  TWOINT  =  1.00D-11  PREFAC  =  1.00D-14  XXXXXX  =  1.00D-09  EORDER  =  1.00D-04
 ENERGY  =  0.00D+00  ETEST   =  0.00D+00  EDENS   =  0.00D+00  THRDEDEF=  1.00D-06  GRADIENT=  1.00D-02  STEP    =  1.00D-03
 ORBITAL =  1.00D-05  CIVEC   =  1.00D-05  COEFF   =  1.00D-04  PRINTCI =  0.00D+00  PUNCHCI =  9.90D+01  OPTGRAD =  3.00D-04
 OPTENERG=  1.00D-06  OPTSTEP =  3.00D-04  THRGRAD =  1.00D-10  COMPRESS=  1.00D-11  VARMIN  =  1.00D-07  VARMAX  =  1.00D-03
 THRDOUB =  0.00D+00  THRDIV  =  1.00D-05  THRRED  =  1.00D-07  THRPSP  =  1.00D+00  THRDC   =  1.00D-10  THRCS   =  1.00D-10
 THRNRM  =  1.00D-08  THREQ   =  0.00D+00  THRDE   =  1.00D+00  THRREF  =  1.00D-05  SPARFAC =  1.00D+00  THRDLP  =  1.00D-07
 THRDIA  =  1.00D-10  THRDLS  =  1.00D-07  THRGPS  =  0.00D+00  THRKEX  =  0.00D+00  THRDIS  =  2.00D-01  THRVAR  =  1.00D-10
 THRLOC  =  1.00D-06  THRGAP  =  1.00D-06  THRLOCT = -1.00D+00  THRGAPT = -1.00D+00  THRORB  =  1.00D-06  THRMLTP =  0.00D+00
 THRCPQCI=  1.00D-10  KEXTA   =  0.00D+00  THRCOARS=  0.00D+00  SYMTOL  =  1.00D-06  GRADTOL =  1.00D-06  THROVL  =  1.00D-08
 THRORTH =  1.00D-08  GRID    =  1.00D-06  GRIDMAX =  1.00D-03  DTMAX   =  0.00D+00  THROCCDE=  1.00D-01  THROCCDE=  1.00D-01
 THRPRINT=  0.00D+00


 Variable memory set to   40000000 words,  buffer space 



 Permanent file  3  wfu.dat  assigned.  Implementation=df    Size= 14.09 MB


 PROGRAM * RESTART 


 Reading variables from file 3

 _FNUC           =      0.00000000
 _BASIS          =    CC-PVDZ
 _NELEC          =      6.00000000
 _PROGRAM        =    RHF-SCF
 _DMX_SCF        =      0.00000000
 _DMY_SCF        =      0.00000000
 _DMZ_SCF        =      0.00000000
 _HOMO           =      2.10000000
 _EHOMO          =     -0.18089003
 _LUMO           =      2.50000000
 _ELUMO          =      0.00860175
 _ENERGY         =    -14.86923112
 _ENERGY_METHOD  =    RHF
 _ENERGY_BASIS   =    cc-pVDZ
 _ENUC           =      1.80000000
 _EPS1(1:7)      =     -2.44754692    -0.18089003     0.04506451     0.14188695     0.17633377     0.31871808
                        0.45987531
 _EPS2(1:3)      =      0.03216991     0.16180289     0.35571558
 _EPS3(1:3)      =      0.03216991     0.16180289     0.35571558
 _EPS4           =      0.31871808
 _EPS5(1:7)      =     -2.44716908     0.00860175     0.08426831     0.25807888     0.31859242     0.39752665
                        0.94057166
 _EPS6(1:3)      =      0.06717723     0.21640604     0.51855068
 _EPS7(1:3)      =      0.06717723     0.21640604     0.51855068
 _EPS8           =      0.39752665
 _IPROC_MPP      =      0.00000000
 _IPROC_MPPX     =      0.00000000
 _ORBITAL        =   2100.30000000
 _STATUS         =      1.00000000
 _DATE           =    21-Oct-19
 _LASTORB        =    RHF
 _OUTPUT         =    /scr/yuriaoto/job.022402/RHF.xml
 _PGROUP         =    D2h 
 _TIME           =    10:20:37
 R               =      5.00000000

 Geometry written to block  1 of record 700


 **********************************************************************************************************************************
 DATASETS  * FILE   NREC   LENGTH (MB)   RECORD NAMES
              3       5       14.77       500      610      700     1000     2100   
                                          VAR    BASINP    GEOM     BASIS     RHF  

 PROGRAMS   *        TOTAL   RESTART
 CPU TIMES  *         0.12      0.02
 REAL TIME  *         0.14 SEC
 DISK USED  *        26.84 MB
 **********************************************************************************************************************************


 Recomputing integrals since basis changed


 Using spherical harmonics

 Library entry LI     S cc-pVDZ              selected for orbital group  1
 Library entry LI     P cc-pVDZ              selected for orbital group  1
 Library entry LI     D cc-pVDZ              selected for orbital group  1


 PROGRAM * SEWARD (Integral evaluation for generally contracted gaussian basis sets)     Author: Roland Lindh, 1990

 Geometry written to block  1 of record 700

 Orientation using atomic masses  
 Molecule type: Linear
 User-specified symmetry elements: X,Y,Z
 Symmetry elements: X,Y,Z
 Rotational constants:      20.8009354     20.8009354      0.0000000 GHz  (calculated with average atomic masses)

 Point group  D2h 



 ATOMIC COORDINATES

 NR  ATOM    CHARGE       X              Y              Z

   1  LI1     3.00    0.000000000    0.000000000   -2.500000000
   2  LI2     3.00    0.000000000    0.000000000    2.500000000

 Bond lengths in Bohr (Angstrom)

 1-2  5.000000000
     ( 2.645886055)


 BASIS DATA

   Nr Sym  Nuc  Type         Exponents   Contraction coefficients

    1.1 Ag    1  1s        1469.000000     0.000766   -0.000120    0.000000
    2.1 Ag    2  1s         220.500000     0.005892   -0.000923    0.000000
    3.1 Ag                   50.260000     0.029671   -0.004689    0.000000
                             14.240000     0.109180   -0.017682    0.000000
                              4.581000     0.282789   -0.048902    0.000000
                              1.580000     0.453123   -0.096009    0.000000
                              0.564000     0.274774   -0.136380    0.000000
                              0.073450     0.009751    0.575102    0.000000
                              0.028050    -0.003180    0.517661    1.000000
    4.1 Ag    1  2pz          1.534000     0.022784    0.000000
    5.1 Ag    2 -2pz          0.274900     0.139107    0.000000
                              0.073620     0.500375    0.000000
                              0.024030     0.508474    1.000000
    6.1 Ag    1  3d0          0.114400     1.000000
              2  3d0   
    7.1 Ag    1  3d2+         0.114400     1.000000
              2  3d2+  
    1.2 B3u   1  2px          1.534000     0.022784    0.000000
    2.2 B3u   2  2px          0.274900     0.139107    0.000000
                              0.073620     0.500375    0.000000
                              0.024030     0.508474    1.000000
    3.2 B3u   1  3d1+         0.114400     1.000000
              2 -3d1+  
    1.3 B2u   1  2py          1.534000     0.022784    0.000000
    2.3 B2u   2  2py          0.274900     0.139107    0.000000
                              0.073620     0.500375    0.000000
                              0.024030     0.508474    1.000000
    3.3 B2u   1  3d1-         0.114400     1.000000
              2 -3d1-  
    1.4 B1g   1  3d2-         0.114400     1.000000
              2  3d2-  
    1.5 B1u   1  1s        1469.000000     0.000766   -0.000120    0.000000
    2.5 B1u   2 -1s         220.500000     0.005892   -0.000923    0.000000
    3.5 B1u                  50.260000     0.029671   -0.004689    0.000000
                             14.240000     0.109180   -0.017682    0.000000
                              4.581000     0.282789   -0.048902    0.000000
                              1.580000     0.453123   -0.096009    0.000000
                              0.564000     0.274774   -0.136380    0.000000
                              0.073450     0.009751    0.575102    0.000000
                              0.028050    -0.003180    0.517661    1.000000
    4.5 B1u   1  2pz          1.534000     0.022784    0.000000
    5.5 B1u   2  2pz          0.274900     0.139107    0.000000
                              0.073620     0.500375    0.000000
                              0.024030     0.508474    1.000000
    6.5 B1u   1  3d0          0.114400     1.000000
              2 -3d0   
    7.5 B1u   1  3d2+         0.114400     1.000000
              2 -3d2+  
    1.6 B2g   1  2px          1.534000     0.022784    0.000000
    2.6 B2g   2 -2px          0.274900     0.139107    0.000000
                              0.073620     0.500375    0.000000
                              0.024030     0.508474    1.000000
    3.6 B2g   1  3d1+         0.114400     1.000000
              2  3d1+  
    1.7 B3g   1  2py          1.534000     0.022784    0.000000
    2.7 B3g   2 -2py          0.274900     0.139107    0.000000
                              0.073620     0.500375    0.000000
                              0.024030     0.508474    1.000000
    3.7 B3g   1  3d1-         0.114400     1.000000
              2  3d1-  
    1.8 Au    1  3d2-         0.114400     1.000000
              2 -3d2-  

 NUCLEAR CHARGE:                    6
 NUMBER OF PRIMITIVE AOS:          54
 NUMBER OF SYMMETRY AOS:           52
 NUMBER OF CONTRACTIONS:           28   (    7Ag  +    3B3u +    3B2u +    1B1g +    7B1u +    3B2g +    3B3g +    1Au  )
 NUMBER OF CORE ORBITALS:           2   (    1Ag  +    0B3u +    0B2u +    0B1g +    1B1u +    0B2g +    0B3g +    0Au  )
 NUMBER OF VALENCE ORBITALS:        8   (    2Ag  +    1B3u +    1B2u +    0B1g +    2B1u +    1B2g +    1B3g +    0Au  )


 NUCLEAR REPULSION ENERGY    1.80000000

 EXTRA SYMMETRY OF AOS IN SYMMETRY 1:   1 1 1 1 1 1 2
 EXTRA SYMMETRY OF AOS IN SYMMETRY 5:   1 1 1 1 1 1 2

 Eigenvalues of metric

         1 0.313E-01 0.101E+00 0.792E+00 0.106E+01 0.116E+01 0.124E+01 0.385E+01
         2 0.135E+00 0.138E+01 0.322E+01
         3 0.135E+00 0.138E+01 0.322E+01
         4 0.124E+01
         5 0.256E-02 0.901E-02 0.995E-01 0.761E+00 0.899E+00 0.115E+01 0.285E+01
         6 0.586E-01 0.230E+00 0.973E+00
         7 0.586E-01 0.230E+00 0.973E+00
         8 0.761E+00


 Contracted 2-electron integrals neglected if value below      1.0D-11
 AO integral compression algorithm  1   Integral accuracy      1.0D-11

     0.262 MB (compressed) written to integral file (100.0%)


 NUMBER OF SORTED TWO-ELECTRON INTEGRALS:      13015.     BUFFER LENGTH:  32768
 NUMBER OF SEGMENTS:   1  SEGMENT LENGTH:      13015      RECORD LENGTH: 524288

 Memory used in sort:       0.57 MW

 SORT1 READ       27440. AND WROTE       11779. INTEGRALS IN      1 RECORDS. CPU TIME:     0.00 SEC, REAL TIME:     0.00 SEC
 SORT2 READ       11779. AND WROTE       13015. INTEGRALS IN      1 RECORDS. CPU TIME:     0.03 SEC, REAL TIME:     0.03 SEC

 FILE SIZES:   FILE 1:    30.2 MBYTE,  FILE 4:     4.2 MBYTE,   TOTAL:     34.5 MBYTE

 OPERATOR DM      FOR CENTER  0  COORDINATES:    0.000000    0.000000    0.000000


 **********************************************************************************************************************************
 DATASETS  * FILE   NREC   LENGTH (MB)   RECORD NAMES
              1      19       30.04       500      700      610      900      950      970     1000      129      960     1100   
                                          VAR     GEOM    BASINP   SYMINP    ZMAT    AOBASIS   BASIS     P2S    ABASIS      S 
                                         1400     1410     1200     1210     1080     1600     1650     1300     1700   
                                           T        V       H0       H01     AOSYM     SMH    MOLCAS    ERIS     OPER   

              3       5       14.77       500      610      700     1000     2100   
                                          VAR    BASINP    GEOM     BASIS     RHF  

 PROGRAMS   *        TOTAL       INT   RESTART
 CPU TIMES  *         0.30      0.18      0.02
 REAL TIME  *         2.03 SEC
 DISK USED  *        49.46 MB
 **********************************************************************************************************************************


 PROGRAM * CISD (Closed-shell CI(SD))     Authors: C. Hampel, H.-J. Werner, 1991, M. Deegan, P.J. Knowles, 1992


 Input parameters for THRESH:

 ENERGY   =    1.00D-10
 COEFF    =    1.00D-12
 PRINTCI  =    0.000000
 THRPRINT =    0.000000

 Convergence thresholds:  THRVAR = 1.00D-24  THRDEN = 1.00D-10

 Number of closed-shell orbitals:   3 (   2   0   0   0   1   0   0   0 )
 Number of external orbitals:      25 (   5   3   3   1   6   3   3   1 )

 Molecular orbitals read from record     2100.3  Type=RHF/CANONICAL (state 1.1)

 Number of N-1 electron functions:               3
 Number of N-2 electron functions:               6
 Number of singly external CSFs:                16
 Number of doubly external CSFs:               481
 Total number of CSFs:                         498

 Length of J-op  integral file:               0.00 MB
 Length of K-op  integral file:               0.04 MB

 Integral transformation finished. Total CPU:   0.00 sec, npass=  1  Memory used:   0.07 MW

 Reference energy:                    -14.86923112

 MP2 singlet pair energy:              -0.01997317
 MP2 triplet pair energy:              -0.00016887
 MP2 correlation energy:               -0.02014205
 MP2 total energy:                    -14.88937317

 SCS-MP2 correlation energy:           -0.02407288   (PS=  1.200000  PT=  0.333333)
 SCS-MP2 total energy:                -14.89330400

 ITER.      SQ.NORM     CORR.ENERGY   TOTAL ENERGY   ENERGY CHANGE        DEN1      VAR(S)    VAR(P)  DIIS     TIME  TIME/IT
   1      1.05140246    -0.02821054   -14.89744166    -0.00806849    -0.00441309  0.64D-04  0.28D-02  1  1     0.02     0.01
   2      1.08458944    -0.02963257   -14.89886370    -0.00142204    -0.00534702  0.38D-04  0.27D-03  2  2     0.02     0.00
   3      1.10063558    -0.03167805   -14.90090917    -0.00204547    -0.00184867  0.34D-05  0.55D-04  3  3     0.03     0.00
   4      1.10395723    -0.03195580   -14.90118692    -0.00027775    -0.00016872  0.11D-05  0.12D-04  4  4     0.03     0.00
   5      1.10504073    -0.03199514   -14.90122626    -0.00003934    -0.00002656  0.26D-06  0.13D-05  5  5     0.03     0.00
   6      1.10563696    -0.03200515   -14.90123627    -0.00001001    -0.00005741  0.15D-06  0.28D-06  6  6     0.04     0.00
   7      1.10570762    -0.03200643   -14.90123755    -0.00000128    -0.00000297  0.75D-07  0.54D-07  6  1     0.04     0.00
   8      1.10573138    -0.03200672   -14.90123784    -0.00000029    -0.00000043  0.22D-07  0.14D-07  6  2     0.04     0.00
   9      1.10571805    -0.03200682   -14.90123794    -0.00000010     0.00000214  0.45D-08  0.21D-08  6  3     0.04     0.00
  10      1.10572808    -0.03200685   -14.90123797    -0.00000003    -0.00000146  0.61D-09  0.30D-09  6  4     0.05     0.00
  11      1.10573289    -0.03200686   -14.90123798    -0.00000001    -0.00000067  0.10D-09  0.73D-10  6  5     0.05     0.00
  12      1.10573482    -0.03200686   -14.90123798    -0.00000000    -0.00000026  0.11D-10  0.22D-10  6  6     0.05     0.00
  13      1.10573391    -0.03200686   -14.90123798    -0.00000000     0.00000008  0.53D-12  0.64D-11  6  1     0.05     0.00
  14      1.10573237    -0.03200686   -14.90123798    -0.00000000     0.00000014  0.12D-12  0.13D-11  6  2     0.06     0.00
  15      1.10573163    -0.03200686   -14.90123798    -0.00000000     0.00000006  0.17D-12  0.31D-12  6  3     0.06     0.00
  16      1.10573135    -0.03200686   -14.90123798    -0.00000000     0.00000002  0.81D-13  0.92D-13  6  4     0.06     0.00
  17      1.10573127    -0.03200686   -14.90123798    -0.00000000     0.00000000  0.59D-14  0.18D-13  6  6     0.07     0.00
  18      1.10573128    -0.03200686   -14.90123798    -0.00000000    -0.00000000  0.31D-15  0.24D-14  6  5     0.07     0.00
  19      1.10573130    -0.03200686   -14.90123798    -0.00000000    -0.00000000  0.15D-16  0.35D-15  6  1     0.07     0.00
  20      1.10573131    -0.03200686   -14.90123798    -0.00000000    -0.00000000  0.14D-16  0.39D-16  6  2     0.07     0.00
  21      1.10573131    -0.03200686   -14.90123798     0.00000000    -0.00000000  0.29D-17  0.76D-17  6  3     0.08     0.00
  22      1.10573131    -0.03200686   -14.90123798     0.00000000    -0.00000000  0.45D-18  0.24D-17  6  4     0.08     0.00
  23      1.10573131    -0.03200686   -14.90123798     0.00000000    -0.00000000  0.13D-18  0.59D-18  6  5     0.08     0.00
  24      1.10573131    -0.03200686   -14.90123798     0.00000000    -0.00000000  0.27D-20  0.53D-19  6  6     0.08     0.00
  25      1.10573131    -0.03200686   -14.90123798     0.00000000    -0.00000000  0.99D-21  0.13D-19  6  1     0.08     0.00
  26      1.10573131    -0.03200686   -14.90123798     0.00000000     0.00000000  0.49D-21  0.27D-20  6  2     0.08     0.00
  27      1.10573131    -0.03200686   -14.90123798     0.00000000     0.00000000  0.12D-21  0.68D-21  6  3     0.09     0.00
  28      1.10573131    -0.03200686   -14.90123798     0.00000000     0.00000000  0.24D-23  0.78D-22  6  1     0.09     0.00
  29      1.10573131    -0.03200686   -14.90123798     0.00000000     0.00000000  0.20D-23  0.16D-22  6  5     0.09     0.00
  30      1.10573131    -0.03200686   -14.90123798     0.00000000     0.00000000  0.84D-24  0.34D-23  6  4     0.09     0.00
  31      1.10573131    -0.03200686   -14.90123798     0.00000000     0.00000000  0.57D-24  0.72D-24  6  6     0.09     0.00
  32      1.10573131    -0.03200686   -14.90123798     0.00000000     0.00000000  0.29D-24  0.18D-24  6  2     0.10     0.00


 ! DIPOLE MOMENTS:                      0.00000000     0.00000000     0.00000000



 Norm of t1 vector:      0.02667499      S-energy:    -0.00002060      T1 diagnostic:  0.00770041

 Singles amplitudes (print threshold =  0.000E+00):

         I         SYM. A    A   T(IA)

         1         1         1      0.00001410
         1         1         2     -0.00000966
         1         1         3     -0.00027301
         1         1         4      0.00000000
         1         1         5      0.00002425
         2         1         1      0.01391379
         2         1         2     -0.01010932
         2         1         3     -0.00722627
         2         1         4     -0.00000000
         2         1         5     -0.00270350
         3         5         1     -0.00034350
         3         5         2      0.00037776
         3         5         3     -0.00013803
         3         5         4     -0.00031406
         3         5         5      0.00000000
         3         5         6     -0.00006297

 Doubles amplitudes (print threshold =  0.000E+00):

         I         J         SYM. A    SYM. B    A         B      T(IJ, AB)

         1         1         1         1         1         1     -0.00002545
         1         1         1         1         1         2      0.00013623
         1         1         1         1         1         3     -0.00008142
         1         1         1         1         1         4      0.00000000
         1         1         1         1         1         5     -0.00011038
         1         1         1         1         2         1      0.00013623
         1         1         1         1         2         2     -0.00038850
         1         1         1         1         2         3      0.00024695
         1         1         1         1         2         4      0.00000000
         1         1         1         1         2         5      0.00022863
         1         1         1         1         3         1     -0.00008142
         1         1         1         1         3         2      0.00024695
         1         1         1         1         3         3     -0.00069843
         1         1         1         1         3         4      0.00000000
         1         1         1         1         3         5      0.00008960
         1         1         1         1         4         1      0.00000000
         1         1         1         1         4         2      0.00000000
         1         1         1         1         4         3      0.00000000
         1         1         1         1         4         4     -0.00000154
         1         1         1         1         4         5     -0.00000000
         1         1         1         1         5         1     -0.00011038
         1         1         1         1         5         2      0.00022863
         1         1         1         1         5         3      0.00008960
         1         1         1         1         5         4     -0.00000000
         1         1         1         1         5         5     -0.00031082
         1         1         2         2         1         1      0.00011475
         1         1         2         2         1         2     -0.00009096
         1         1         2         2         1         3      0.00007985
         1         1         2         2         2         1     -0.00009096
         1         1         2         2         2         2     -0.00061204
         1         1         2         2         2         3      0.00015497
         1         1         2         2         3         1      0.00007985
         1         1         2         2         3         2      0.00015497
         1         1         2         2         3         3     -0.00002426
         1         1         3         3         1         1      0.00011475
         1         1         3         3         1         2     -0.00009096
         1         1         3         3         1         3      0.00007985
         1         1         3         3         2         1     -0.00009096
         1         1         3         3         2         2     -0.00061204
         1         1         3         3         2         3      0.00015497
         1         1         3         3         3         1      0.00007985
         1         1         3         3         3         2      0.00015497
         1         1         3         3         3         3     -0.00002426
         1         1         4         4         1         1     -0.00000154
         1         1         5         5         1         1     -0.00029473
         1         1         5         5         1         2      0.00048449
         1         1         5         5         1         3     -0.00021411
         1         1         5         5         1         4     -0.00035267
         1         1         5         5         1         5     -0.00000000
         1         1         5         5         1         6     -0.00047387
         1         1         5         5         2         1      0.00048449
         1         1         5         5         2         2     -0.00073227
         1         1         5         5         2         3      0.00021873
         1         1         5         5         2         4      0.00053630
         1         1         5         5         2         5     -0.00000000
         1         1         5         5         2         6      0.00053633
         1         1         5         5         3         1     -0.00021411
         1         1         5         5         3         2      0.00021873
         1         1         5         5         3         3     -0.00064328
         1         1         5         5         3         4     -0.00003552
         1         1         5         5         3         5     -0.00000000
         1         1         5         5         3         6     -0.00116976
         1         1         5         5         4         1     -0.00035267
         1         1         5         5         4         2      0.00053630
         1         1         5         5         4         3     -0.00003552
         1         1         5         5         4         4     -0.00045748
         1         1         5         5         4         5     -0.00000000
         1         1         5         5         4         6     -0.00003147
         1         1         5         5         5         1     -0.00000000
         1         1         5         5         5         2     -0.00000000
         1         1         5         5         5         3     -0.00000000
         1         1         5         5         5         4     -0.00000000
         1         1         5         5         5         5     -0.00000576
         1         1         5         5         5         6      0.00000000
         1         1         5         5         6         1     -0.00047387
         1         1         5         5         6         2      0.00053633
         1         1         5         5         6         3     -0.00116976
         1         1         5         5         6         4     -0.00003147
         1         1         5         5         6         5      0.00000000
         1         1         5         5         6         6     -0.00283952
         1         1         6         6         1         1     -0.00000757
         1         1         6         6         1         2     -0.00009042
         1         1         6         6         1         3     -0.00005553
         1         1         6         6         2         1     -0.00009042
         1         1         6         6         2         2     -0.00077954
         1         1         6         6         2         3     -0.00048960
         1         1         6         6         3         1     -0.00005553
         1         1         6         6         3         2     -0.00048960
         1         1         6         6         3         3     -0.00032556
         1         1         7         7         1         1     -0.00000757
         1         1         7         7         1         2     -0.00009042
         1         1         7         7         1         3     -0.00005553
         1         1         7         7         2         1     -0.00009042
         1         1         7         7         2         2     -0.00077954
         1         1         7         7         2         3     -0.00048960
         1         1         7         7         3         1     -0.00005553
         1         1         7         7         3         2     -0.00048960
         1         1         7         7         3         3     -0.00032556
         1         1         8         8         1         1     -0.00000576
         2         1         1         1         1         1     -0.00045691
         2         1         1         1         1         2      0.00091789
         2         1         1         1         1         3     -0.00089462
         2         1         1         1         1         4     -0.00000000
         2         1         1         1         1         5     -0.00043181
         2         1         1         1         2         1      0.00066297
         2         1         1         1         2         2     -0.00133928
         2         1         1         1         2         3      0.00134933
         2         1         1         1         2         4      0.00000000
         2         1         1         1         2         5      0.00072935
         2         1         1         1         3         1     -0.00036052
         2         1         1         1         3         2      0.00075925
         2         1         1         1         3         3     -0.00052728
         2         1         1         1         3         4     -0.00000000
         2         1         1         1         3         5     -0.00034611
         2         1         1         1         4         1     -0.00000000
         2         1         1         1         4         2      0.00000000
         2         1         1         1         4         3     -0.00000000
         2         1         1         1         4         4     -0.00019064
         2         1         1         1         4         5     -0.00000000
         2         1         1         1         5         1     -0.00041605
         2         1         1         1         5         2      0.00086229
         2         1         1         1         5         3     -0.00089177
         2         1         1         1         5         4      0.00000000
         2         1         1         1         5         5     -0.00060415
         2         1         2         2         1         1     -0.00047274
         2         1         2         2         1         2     -0.00117463
         2         1         2         2         1         3      0.00002162
         2         1         2         2         2         1     -0.00068376
         2         1         2         2         2         2     -0.00185275
         2         1         2         2         2         3      0.00007573
         2         1         2         2         3         1     -0.00024830
         2         1         2         2         3         2     -0.00048844
         2         1         2         2         3         3     -0.00024499
         2         1         3         3         1         1     -0.00047274
         2         1         3         3         1         2     -0.00117463
         2         1         3         3         1         3      0.00002162
         2         1         3         3         2         1     -0.00068376
         2         1         3         3         2         2     -0.00185275
         2         1         3         3         2         3      0.00007573
         2         1         3         3         3         1     -0.00024830
         2         1         3         3         3         2     -0.00048844
         2         1         3         3         3         3     -0.00024499
         2         1         4         4         1         1     -0.00019064
         2         1         5         5         1         1      0.00011498
         2         1         5         5         1         2     -0.00018704
         2         1         5         5         1         3     -0.00047927
         2         1         5         5         1         4      0.00034200
         2         1         5         5         1         5     -0.00000000
         2         1         5         5         1         6     -0.00083111
         2         1         5         5         2         1     -0.00025680
         2         1         5         5         2         2      0.00035162
         2         1         5         5         2         3      0.00029436
         2         1         5         5         2         4     -0.00039911
         2         1         5         5         2         5     -0.00000000
         2         1         5         5         2         6      0.00059133
         2         1         5         5         3         1     -0.00018516
         2         1         5         5         3         2      0.00017581
         2         1         5         5         3         3     -0.00080703
         2         1         5         5         3         4      0.00015637
         2         1         5         5         3         5     -0.00000000
         2         1         5         5         3         6     -0.00125012
         2         1         5         5         4         1      0.00033070
         2         1         5         5         4         2     -0.00038432
         2         1         5         5         4         3      0.00035972
         2         1         5         5         4         4      0.00014885
         2         1         5         5         4         5     -0.00000000
         2         1         5         5         4         6      0.00030294
         2         1         5         5         5         1     -0.00000000
         2         1         5         5         5         2     -0.00000000
         2         1         5         5         5         3     -0.00000000
         2         1         5         5         5         4     -0.00000000
         2         1         5         5         5         5     -0.00014804
         2         1         5         5         5         6      0.00000000
         2         1         5         5         6         1     -0.00019808
         2         1         5         5         6         2      0.00016310
         2         1         5         5         6         3     -0.00089796
         2         1         5         5         6         4      0.00005601
         2         1         5         5         6         5      0.00000000
         2         1         5         5         6         6     -0.00129058
         2         1         6         6         1         1     -0.00008561
         2         1         6         6         1         2     -0.00055143
         2         1         6         6         1         3     -0.00027041
         2         1         6         6         2         1     -0.00025387
         2         1         6         6         2         2     -0.00165810
         2         1         6         6         2         3     -0.00090074
         2         1         6         6         3         1     -0.00011174
         2         1         6         6         3         2     -0.00078773
         2         1         6         6         3         3     -0.00059528
         2         1         7         7         1         1     -0.00008561
         2         1         7         7         1         2     -0.00055143
         2         1         7         7         1         3     -0.00027041
         2         1         7         7         2         1     -0.00025387
         2         1         7         7         2         2     -0.00165810
         2         1         7         7         2         3     -0.00090074
         2         1         7         7         3         1     -0.00011174
         2         1         7         7         3         2     -0.00078773
         2         1         7         7         3         3     -0.00059528
         2         1         8         8         1         1     -0.00014804
         2         2         1         1         1         1     -0.04921792
         2         2         1         1         1         2      0.05606991
         2         2         1         1         1         3     -0.00738136
         2         2         1         1         1         4     -0.00000000
         2         2         1         1         1         5     -0.01904368
         2         2         1         1         2         1      0.05606991
         2         2         1         1         2         2     -0.07069470
         2         2         1         1         2         3      0.00445973
         2         2         1         1         2         4      0.00000000
         2         2         1         1         2         5      0.02547991
         2         2         1         1         3         1     -0.00738136
         2         2         1         1         3         2      0.00445973
         2         2         1         1         3         3     -0.00455940
         2         2         1         1         3         4      0.00000000
         2         2         1         1         3         5     -0.00180768
         2         2         1         1         4         1     -0.00000000
         2         2         1         1         4         2      0.00000000
         2         2         1         1         4         3      0.00000000
         2         2         1         1         4         4     -0.00637989
         2         2         1         1         4         5      0.00000000
         2         2         1         1         5         1     -0.01904368
         2         2         1         1         5         2      0.02547991
         2         2         1         1         5         3     -0.00180768
         2         2         1         1         5         4      0.00000000
         2         2         1         1         5         5     -0.01193665
         2         2         2         2         1         1     -0.11852134
         2         2         2         2         1         2     -0.08386248
         2         2         2         2         1         3     -0.03193158
         2         2         2         2         2         1     -0.08386248
         2         2         2         2         2         2     -0.06188594
         2         2         2         2         2         3     -0.02521271
         2         2         2         2         3         1     -0.03193158
         2         2         2         2         3         2     -0.02521271
         2         2         2         2         3         3     -0.01353740
         2         2         3         3         1         1     -0.11852134
         2         2         3         3         1         2     -0.08386248
         2         2         3         3         1         3     -0.03193158
         2         2         3         3         2         1     -0.08386248
         2         2         3         3         2         2     -0.06188594
         2         2         3         3         2         3     -0.02521271
         2         2         3         3         3         1     -0.03193158
         2         2         3         3         3         2     -0.02521271
         2         2         3         3         3         3     -0.01353740
         2         2         4         4         1         1     -0.00637989
         2         2         5         5         1         1     -0.07642533
         2         2         5         5         1         2      0.05559136
         2         2         5         5         1         3     -0.00304117
         2         2         5         5         1         4     -0.03135946
         2         2         5         5         1         5      0.00000000
         2         2         5         5         1         6      0.00697200
         2         2         5         5         2         1      0.05559136
         2         2         5         5         2         2     -0.04194636
         2         2         5         5         2         3      0.00170531
         2         2         5         5         2         4      0.02534058
         2         2         5         5         2         5     -0.00000000
         2         2         5         5         2         6     -0.00644498
         2         2         5         5         3         1     -0.00304117
         2         2         5         5         3         2      0.00170531
         2         2         5         5         3         3     -0.00054033
         2         2         5         5         3         4     -0.00022188
         2         2         5         5         3         5      0.00000000
         2         2         5         5         3         6     -0.00009196
         2         2         5         5         4         1     -0.03135946
         2         2         5         5         4         2      0.02534058
         2         2         5         5         4         3     -0.00022188
         2         2         5         5         4         4     -0.01833460
         2         2         5         5         4         5      0.00000000
         2         2         5         5         4         6      0.00599741
         2         2         5         5         5         1      0.00000000
         2         2         5         5         5         2     -0.00000000
         2         2         5         5         5         3      0.00000000
         2         2         5         5         5         4      0.00000000
         2         2         5         5         5         5     -0.00202031
         2         2         5         5         5         6     -0.00000000
         2         2         5         5         6         1      0.00697200
         2         2         5         5         6         2     -0.00644498
         2         2         5         5         6         3     -0.00009196
         2         2         5         5         6         4      0.00599741
         2         2         5         5         6         5     -0.00000000
         2         2         5         5         6         6     -0.00355044
         2         2         6         6         1         1     -0.00098702
         2         2         6         6         1         2     -0.00196670
         2         2         6         6         1         3     -0.00136127
         2         2         6         6         2         1     -0.00196670
         2         2         6         6         2         2     -0.00402013
         2         2         6         6         2         3     -0.00267254
         2         2         6         6         3         1     -0.00136127
         2         2         6         6         3         2     -0.00267254
         2         2         6         6         3         3     -0.00238614
         2         2         7         7         1         1     -0.00098702
         2         2         7         7         1         2     -0.00196670
         2         2         7         7         1         3     -0.00136127
         2         2         7         7         2         1     -0.00196670
         2         2         7         7         2         2     -0.00402013
         2         2         7         7         2         3     -0.00267254
         2         2         7         7         3         1     -0.00136127
         2         2         7         7         3         2     -0.00267254
         2         2         7         7         3         3     -0.00238614
         2         2         8         8         1         1     -0.00202031
         3         3         1         1         1         1     -0.00001402
         3         3         1         1         1         2      0.00011199
         3         3         1         1         1         3     -0.00006054
         3         3         1         1         1         4      0.00000000
         3         3         1         1         1         5     -0.00009368
         3         3         1         1         2         1      0.00011199
         3         3         1         1         2         2     -0.00033752
         3         3         1         1         2         3      0.00020322
         3         3         1         1         2         4     -0.00000000
         3         3         1         1         2         5      0.00019274
         3         3         1         1         3         1     -0.00006054
         3         3         1         1         3         2      0.00020322
         3         3         1         1         3         3     -0.00066250
         3         3         1         1         3         4     -0.00000000
         3         3         1         1         3         5      0.00012034
         3         3         1         1         4         1      0.00000000
         3         3         1         1         4         2     -0.00000000
         3         3         1         1         4         3     -0.00000000
         3         3         1         1         4         4     -0.00000074
         3         3         1         1         4         5     -0.00000000
         3         3         1         1         5         1     -0.00009368
         3         3         1         1         5         2      0.00019274
         3         3         1         1         5         3      0.00012034
         3         3         1         1         5         4     -0.00000000
         3         3         1         1         5         5     -0.00028459
         3         3         2         2         1         1      0.00012010
         3         3         2         2         1         2     -0.00007532
         3         3         2         2         1         3      0.00008247
         3         3         2         2         2         1     -0.00007532
         3         3         2         2         2         2     -0.00056871
         3         3         2         2         2         3      0.00016223
         3         3         2         2         3         1      0.00008247
         3         3         2         2         3         2      0.00016223
         3         3         2         2         3         3     -0.00002352
         3         3         3         3         1         1      0.00012010
         3         3         3         3         1         2     -0.00007532
         3         3         3         3         1         3      0.00008247
         3         3         3         3         2         1     -0.00007532
         3         3         3         3         2         2     -0.00056871
         3         3         3         3         2         3      0.00016223
         3         3         3         3         3         1      0.00008247
         3         3         3         3         3         2      0.00016223
         3         3         3         3         3         3     -0.00002352
         3         3         4         4         1         1     -0.00000074
         3         3         5         5         1         1     -0.00030013
         3         3         5         5         1         2      0.00048941
         3         3         5         5         1         3     -0.00022946
         3         3         5         5         1         4     -0.00035207
         3         3         5         5         1         5     -0.00000000
         3         3         5         5         1         6     -0.00050061
         3         3         5         5         2         1      0.00048941
         3         3         5         5         2         2     -0.00073673
         3         3         5         5         2         3      0.00023284
         3         3         5         5         2         4      0.00053559
         3         3         5         5         2         5      0.00000000
         3         3         5         5         2         6      0.00056054
         3         3         5         5         3         1     -0.00022946
         3         3         5         5         3         2      0.00023284
         3         3         5         5         3         3     -0.00069209
         3         3         5         5         3         4     -0.00003322
         3         3         5         5         3         5      0.00000000
         3         3         5         5         3         6     -0.00125736
         3         3         5         5         4         1     -0.00035207
         3         3         5         5         4         2      0.00053559
         3         3         5         5         4         3     -0.00003322
         3         3         5         5         4         4     -0.00045719
         3         3         5         5         4         5      0.00000000
         3         3         5         5         4         6     -0.00002652
         3         3         5         5         5         1     -0.00000000
         3         3         5         5         5         2      0.00000000
         3         3         5         5         5         3      0.00000000
         3         3         5         5         5         4      0.00000000
         3         3         5         5         5         5     -0.00000611
         3         3         5         5         5         6     -0.00000000
         3         3         5         5         6         1     -0.00050061
         3         3         5         5         6         2      0.00056054
         3         3         5         5         6         3     -0.00125736
         3         3         5         5         6         4     -0.00002652
         3         3         5         5         6         5     -0.00000000
         3         3         5         5         6         6     -0.00299861
         3         3         6         6         1         1     -0.00000840
         3         3         6         6         1         2     -0.00009604
         3         3         6         6         1         3     -0.00005906
         3         3         6         6         2         1     -0.00009604
         3         3         6         6         2         2     -0.00081666
         3         3         6         6         2         3     -0.00051392
         3         3         6         6         3         1     -0.00005906
         3         3         6         6         3         2     -0.00051392
         3         3         6         6         3         3     -0.00034232
         3         3         7         7         1         1     -0.00000840
         3         3         7         7         1         2     -0.00009604
         3         3         7         7         1         3     -0.00005906
         3         3         7         7         2         1     -0.00009604
         3         3         7         7         2         2     -0.00081666
         3         3         7         7         2         3     -0.00051392
         3         3         7         7         3         1     -0.00005906
         3         3         7         7         3         2     -0.00051392
         3         3         7         7         3         3     -0.00034232
         3         3         8         8         1         1     -0.00000611
         3         1         1         5         1         1      0.00004252
         3         1         1         5         1         2     -0.00008515
         3         1         1         5         1         3     -0.00017975
         3         1         1         5         1         4      0.00012325
         3         1         1         5         1         5     -0.00000000
         3         1         1         5         1         6     -0.00036003
         3         1         1         5         2         1     -0.00003911
         3         1         1         5         2         2      0.00011345
         3         1         1         5         2         3      0.00042317
         3         1         1         5         2         4     -0.00023079
         3         1         1         5         2         5     -0.00000000
         3         1         1         5         2         6      0.00093388
         3         1         1         5         3         1     -0.00044832
         3         1         1         5         3         2      0.00056832
         3         1         1         5         3         3     -0.00055618
         3         1         1         5         3         4     -0.00033295
         3         1         1         5         3         5      0.00000000
         3         1         1         5         3         6     -0.00103792
         3         1         1         5         4         1      0.00000000
         3         1         1         5         4         2     -0.00000000
         3         1         1         5         4         3     -0.00000000
         3         1         1         5         4         4      0.00000000
         3         1         1         5         4         5     -0.00001334
         3         1         1         5         4         6      0.00000000
         3         1         1         5         5         1      0.00024856
         3         1         1         5         5         2     -0.00038414
         3         1         1         5         5         3     -0.00012449
         3         1         1         5         5         4      0.00030080
         3         1         1         5         5         5      0.00000000
         3         1         1         5         5         6     -0.00013177
         3         1         2         6         1         1     -0.00002596
         3         1         2         6         1         2     -0.00021886
         3         1         2         6         1         3     -0.00013812
         3         1         2         6         2         1     -0.00008735
         3         1         2         6         2         2     -0.00072197
         3         1         2         6         2         3     -0.00045843
         3         1         2         6         3         1      0.00001899
         3         1         2         6         3         2      0.00014930
         3         1         2         6         3         3      0.00007688
         3         1         3         7         1         1     -0.00002596
         3         1         3         7         1         2     -0.00021886
         3         1         3         7         1         3     -0.00013812
         3         1         3         7         2         1     -0.00008735
         3         1         3         7         2         2     -0.00072197
         3         1         3         7         2         3     -0.00045843
         3         1         3         7         3         1      0.00001899
         3         1         3         7         3         2      0.00014930
         3         1         3         7         3         3      0.00007688
         3         1         4         8         1         1     -0.00001334
         3         1         5         1         1         1      0.00003510
         3         1         5         1         1         2     -0.00002334
         3         1         5         1         1         3     -0.00046125
         3         1         5         1         1         4      0.00000000
         3         1         5         1         1         5      0.00023755
         3         1         5         1         2         1     -0.00007825
         3         1         5         1         2         2      0.00009868
         3         1         5         1         2         3      0.00058059
         3         1         5         1         2         4     -0.00000000
         3         1         5         1         2         5     -0.00037401
         3         1         5         1         3         1     -0.00020278
         3         1         5         1         3         2      0.00047213
         3         1         5         1         3         3     -0.00059500
         3         1         5         1         3         4     -0.00000000
         3         1         5         1         3         5     -0.00015919
         3         1         5         1         4         1      0.00012365
         3         1         5         1         4         2     -0.00023135
         3         1         5         1         4         3     -0.00033279
         3         1         5         1         4         4      0.00000000
         3         1         5         1         4         5      0.00030119
         3         1         5         1         5         1     -0.00000000
         3         1         5         1         5         2     -0.00000000
         3         1         5         1         5         3      0.00000000
         3         1         5         1         5         4     -0.00001382
         3         1         5         1         5         5      0.00000000
         3         1         5         1         6         1     -0.00039993
         3         1         5         1         6         2      0.00101953
         3         1         5         1         6         3     -0.00110518
         3         1         5         1         6         4      0.00000000
         3         1         5         1         6         5     -0.00019340
         3         1         6         2         1         1     -0.00002807
         3         1         6         2         1         2     -0.00009318
         3         1         6         2         1         3      0.00001838
         3         1         6         2         2         1     -0.00023291
         3         1         6         2         2         2     -0.00076075
         3         1         6         2         2         3      0.00014407
         3         1         6         2         3         1     -0.00014803
         3         1         6         2         3         2     -0.00048565
         3         1         6         2         3         3      0.00007253
         3         1         7         3         1         1     -0.00002807
         3         1         7         3         1         2     -0.00009318
         3         1         7         3         1         3      0.00001838
         3         1         7         3         2         1     -0.00023291
         3         1         7         3         2         2     -0.00076075
         3         1         7         3         2         3      0.00014407
         3         1         7         3         3         1     -0.00014803
         3         1         7         3         3         2     -0.00048565
         3         1         7         3         3         3      0.00007253
         3         1         8         4         1         1     -0.00001382
         3         2         1         5         1         1     -0.00027646
         3         2         1         5         1         2      0.00024259
         3         2         1         5         1         3     -0.00027654
         3         2         1         5         1         4     -0.00000097
         3         2         1         5         1         5     -0.00000000
         3         2         1         5         1         6     -0.00025167
         3         2         1         5         2         1      0.00059156
         3         2         1         5         2         2     -0.00051219
         3         2         1         5         2         3      0.00061364
         3         2         1         5         2         4      0.00000454
         3         2         1         5         2         5      0.00000000
         3         2         1         5         2         6      0.00056988
         3         2         1         5         3         1     -0.00023321
         3         2         1         5         3         2      0.00003351
         3         2         1         5         3         3     -0.00065567
         3         2         1         5         3         4      0.00044261
         3         2         1         5         3         5      0.00000000
         3         2         1         5         3         6     -0.00071609
         3         2         1         5         4         1     -0.00000000
         3         2         1         5         4         2      0.00000000
         3         2         1         5         4         3      0.00000000
         3         2         1         5         4         4      0.00000000
         3         2         1         5         4         5     -0.00013465
         3         2         1         5         4         6     -0.00000000
         3         2         1         5         5         1     -0.00034897
         3         2         1         5         5         2      0.00036318
         3         2         1         5         5         3     -0.00021201
         3         2         1         5         5         4     -0.00022078
         3         2         1         5         5         5      0.00000000
         3         2         1         5         5         6     -0.00034892
         3         2         2         6         1         1     -0.00015452
         3         2         2         6         1         2     -0.00044710
         3         2         2         6         1         3     -0.00023860
         3         2         2         6         2         1     -0.00048655
         3         2         2         6         2         2     -0.00147120
         3         2         2         6         2         3     -0.00075894
         3         2         2         6         3         1      0.00011303
         3         2         2         6         3         2      0.00029255
         3         2         2         6         3         3      0.00000139
         3         2         3         7         1         1     -0.00015452
         3         2         3         7         1         2     -0.00044710
         3         2         3         7         1         3     -0.00023860
         3         2         3         7         2         1     -0.00048655
         3         2         3         7         2         2     -0.00147120
         3         2         3         7         2         3     -0.00075894
         3         2         3         7         3         1      0.00011303
         3         2         3         7         3         2      0.00029255
         3         2         3         7         3         3      0.00000139
         3         2         4         8         1         1     -0.00013465
         3         2         5         1         1         1     -0.00033316
         3         2         5         1         1         2      0.00054300
         3         2         5         1         1         3      0.00001129
         3         2         5         1         1         4     -0.00000000
         3         2         5         1         1         5     -0.00043865
         3         2         5         1         2         1      0.00032554
         3         2         5         1         2         2     -0.00053316
         3         2         5         1         2         3     -0.00006061
         3         2         5         1         2         4      0.00000000
         3         2         5         1         2         5      0.00045837
         3         2         5         1         3         1     -0.00100761
         3         2         5         1         3         2      0.00150152
         3         2         5         1         3         3     -0.00077365
         3         2         5         1         3         4      0.00000000
         3         2         5         1         3         5     -0.00092288
         3         2         5         1         4         1      0.00008380
         3         2         5         1         4         2     -0.00001633
         3         2         5         1         4         3      0.00034980
         3         2         5         1         4         4      0.00000000
         3         2         5         1         4         5     -0.00018460
         3         2         5         1         5         1     -0.00000000
         3         2         5         1         5         2      0.00000000
         3         2         5         1         5         3      0.00000000
         3         2         5         1         5         4     -0.00018358
         3         2         5         1         5         5      0.00000000
         3         2         5         1         6         1     -0.00150575
         3         2         5         1         6         2      0.00225932
         3         2         5         1         6         3     -0.00128452
         3         2         5         1         6         4     -0.00000000
         3         2         5         1         6         5     -0.00158443
         3         2         6         2         1         1     -0.00016168
         3         2         6         2         1         2     -0.00027205
         3         2         6         2         1         3     -0.00004151
         3         2         6         2         2         1     -0.00110186
         3         2         6         2         2         2     -0.00183551
         3         2         6         2         2         3     -0.00031265
         3         2         6         2         3         1     -0.00065497
         3         2         6         2         3         2     -0.00113622
         3         2         6         2         3         3     -0.00039933
         3         2         7         3         1         1     -0.00016168
         3         2         7         3         1         2     -0.00027205
         3         2         7         3         1         3     -0.00004151
         3         2         7         3         2         1     -0.00110186
         3         2         7         3         2         2     -0.00183551
         3         2         7         3         2         3     -0.00031265
         3         2         7         3         3         1     -0.00065497
         3         2         7         3         3         2     -0.00113622
         3         2         7         3         3         3     -0.00039933
         3         2         8         4         1         1     -0.00018358


 RESULTS
 =======

  Reference energy                    -14.869231121713

  Correlated core orbitals:             1.1       1.5
  Orbital energies:                    -2.4475   -2.4472

  CISD core-core energy                -0.000353170438
  CISD core-valence energy             -0.000519909878
  CISD valence correlation energy      -0.031133776066

  CISD singlet pair energy             -0.031842557712
  CISD triplet pair energy             -0.000143700206
  CISD correlation energy              -0.032006856381

 !CISD total energy                   -14.901237978094

 Timing summary (sec):

 STEP                 CPU(USER)    SYS     CPU(TOT)    WALL
 CCSD iterations         0.10      0.01      0.11      0.12

 Program statistics:

 Available memory in ccsd:                39999164
 Min. memory needed in ccsd:                  3543
 Max. memory used in ccsd:                    3777
 Max. memory used in cckext:                 35677 (32 integral passes)



 **********************************************************************************************************************************
 DATASETS  * FILE   NREC   LENGTH (MB)   RECORD NAMES
              1      20       30.05       500      700      610      900      950      970     1000      129      960     1100   
                                          VAR     GEOM    BASINP   SYMINP    ZMAT    AOBASIS   BASIS     P2S    ABASIS      S 
                                         1400     1410     1200     1210     1080     1600     1650     1300     1700     1380   
                                           T        V       H0       H01     AOSYM     SMH    MOLCAS    ERIS     OPER     JKOP   

              3       5       14.77       500      610      700     1000     2100   
                                          VAR    BASINP    GEOM     BASIS     RHF  

 PROGRAMS   *        TOTAL      CISD       INT   RESTART
 CPU TIMES  *         0.47      0.17      0.18      0.02
 REAL TIME  *         2.22 SEC
 DISK USED  *        49.46 MB
 **********************************************************************************************************************************
 Molecular orbitals read from record     2100.3  Type=RHF/CANONICAL (state 1.1)
 Occupation numbers read from record     2100.3  Type=RHF/RHF (state 1.1)
 Orbital energies read from record       2100.3  Type=RHF/CANONICAL (state 1.1)
 Redundancy group numbers read from rec  2100.3  Type=RHF/RHF (state 1.1)

 CISD/cc-pVDZ energy=    -14.901237978094

            CISD
    -14.90123798
 **********************************************************************************************************************************
 Molpro calculation terminated
