
 Primary working directories    : /scr/yuriaoto/job.023617/molpro.faXCl5YuUS
 Secondary working directories  : /scr/yuriaoto/job.023617/molpro.faXCl5YuUS
 Wavefunction directory         : /scr/yuriaoto/job.023617/
 Main file repository           : /scr/yuriaoto/job.023617/molpro.faXCl5YuUS/

 id        : yuriaoto

 Nodes             nprocs
 t-rex.ufabc.int.br    1

 Using customized tuning parameters: mindgm=8; mindgv=16; mindgc=1; mindgr=1; noblas=0; minvec=7
 default implementation of scratch files=df  


 Variables initialized (933), CPU time= 0.00 sec
 ***,
 memory,40,m
 gprint,orbital,basis,civector
 gthresh,printci=0.0,thrprint=0
 file,3,wfu.dat,old
 
 {bccd,SAVEORB=2150.2,print,CC_NORM_MAX=10.0
 thresh,printci=0.0,ENERGY=1.0E-10,COEFF=1.0E-12
 print,ref=1
 core,0
 wf,18,1,0;
 }
 
 {put,xml,orbitals.xml; orbital,2150.2; nosort; novariables}
 
 Commands  initialized (760), CPU time= 0.02 sec, 617 directives.
 Default parameters read. Elapsed time= 0.09 sec

 Checking input...
 Passed
1


                                         ***  PROGRAM SYSTEM MOLPRO  ***
                                       Copyright, TTI GmbH Stuttgart, 2015
                                    Version 2019.2 linked Abr  7 2019 15:10:35


 **********************************************************************************************************************************
 LABEL *                                                                                 
  64 bit serial version                                                                  DATE: 05-Jun-20          TIME: 21:39:24  
 **********************************************************************************************************************************

 SHA1:             3a8a58c585c929645742fb5a1b7541a4ad1da699
 **********************************************************************************************************************************


 THRESHOLDS:

 ZERO    =  1.00D-12  ONEINT  =  1.00D-12  TWOINT  =  1.00D-11  PREFAC  =  1.00D-14  XXXXXX  =  1.00D-09  EORDER  =  1.00D-04
 ENERGY  =  0.00D+00  ETEST   =  0.00D+00  EDENS   =  0.00D+00  THRDEDEF=  1.00D-06  GRADIENT=  1.00D-02  STEP    =  1.00D-03
 ORBITAL =  1.00D-05  CIVEC   =  1.00D-05  COEFF   =  1.00D-04  PRINTCI =  0.00D+00  PUNCHCI =  9.90D+01  OPTGRAD =  3.00D-04
 OPTENERG=  1.00D-06  OPTSTEP =  3.00D-04  THRGRAD =  1.00D-10  COMPRESS=  1.00D-11  VARMIN  =  1.00D-07  VARMAX  =  1.00D-03
 THRDOUB =  0.00D+00  THRDIV  =  1.00D-05  THRRED  =  1.00D-07  THRPSP  =  1.00D+00  THRDC   =  1.00D-10  THRCS   =  1.00D-10
 THRNRM  =  1.00D-08  THREQ   =  0.00D+00  THRDE   =  1.00D+00  THRREF  =  1.00D-05  SPARFAC =  1.00D+00  THRDLP  =  1.00D-07
 THRDIA  =  1.00D-10  THRDLS  =  1.00D-07  THRGPS  =  0.00D+00  THRKEX  =  0.00D+00  THRDIS  =  2.00D-01  THRVAR  =  1.00D-10
 THRLOC  =  1.00D-06  THRGAP  =  1.00D-06  THRLOCT = -1.00D+00  THRGAPT = -1.00D+00  THRORB  =  1.00D-06  THRMLTP =  0.00D+00
 THRCPQCI=  1.00D-10  KEXTA   =  0.00D+00  THRCOARS=  0.00D+00  SYMTOL  =  1.00D-06  GRADTOL =  1.00D-06  THROVL  =  1.00D-08
 THRORTH =  1.00D-08  GRID    =  1.00D-06  GRIDMAX =  1.00D-03  DTMAX   =  0.00D+00  THROCCDE=  1.00D-01  THROCCDE=  1.00D-01
 THRPRINT=  0.00D+00


 Variable memory set to   40000000 words,  buffer space 



 Permanent file  3  wfu.dat  assigned.  Implementation=df    Size= 14.09 MB


 PROGRAM * RESTART 


 Reading variables from file 3

 _FNUC           =      0.00000000
 _BASIS          =    6-31G
 _NELEC          =     18.00000000
 _PROGRAM        =    RHF-SCF
 _DMX            =     -0.00000000
 _DMY            =      0.00000000
 _DMZ            =     -0.64056631
 _DMX_SCF        =     -0.00000000
 _DMY_SCF        =      0.00000000
 _DMZ_SCF        =     -0.64056631
 _HOMO           =      9.10000000
 _EHOMO          =     -0.49295114
 _LUMO           =     10.10000000
 _ELUMO          =      0.32493986
 _ENERGY         =   -459.60831721
 _ENERGY_METHOD  =    RHF
 _ENERGY_BASIS   =    6-31G
 _ENUC           =     11.33333333
 _EPS1(1:15)     =   -104.81304708   -10.58851941    -8.06562950    -8.04437589    -8.04437589    -1.29348723
                       -0.68951886    -0.49295114    -0.49295114     0.32493986     0.41098157     0.59951917
                        0.61252576     0.61252576     1.47579847
 _IPROC_MPP      =      0.00000000
 _IPROC_MPPX     =      0.00000000
 _ORBITAL        =   2100.30000000
 _STATUS         =      1.00000000
 _DATE           =    31-May-20
 _LASTORB        =    RHF
 _OUTPUT         =    /scr/yuriaoto/job.023317/RHF.xml
 _PGROUP         =    C1  
 _TIME           =    01:23:49
 R               =      1.50000000

 Geometry written to block  1 of record 700


 **********************************************************************************************************************************
 DATASETS  * FILE   NREC   LENGTH (MB)   RECORD NAMES
              3       5       14.77       500      610      700     1000     2100   
                                          VAR    BASINP    GEOM     BASIS     RHF  

 PROGRAMS   *        TOTAL   RESTART
 CPU TIMES  *         0.20      0.02
 REAL TIME  *         0.23 SEC
 DISK USED  *        26.84 MB
 **********************************************************************************************************************************


 Recomputing integrals since basis changed


 Using spherical harmonics

 Library entry H      S 6-31G                selected for orbital group  1
 Library entry CL     S 6-31G                selected for orbital group  2
 Library entry CL     P 6-31G                selected for orbital group  2


 PROGRAM * SEWARD (Integral evaluation for generally contracted gaussian basis sets)     Author: Roland Lindh, 1990

 Geometry written to block  1 of record 700

 Orientation using atomic masses  
 Molecule type: Linear
 Rotational constants:     818.4131427    818.4131427      0.0000000 GHz  (calculated with average atomic masses)

 Point group  C1  



 ATOMIC COORDINATES

 NR  ATOM    CHARGE       X              Y              Z

   1  H       1.00    0.000000000    0.000000000   -1.458533433
   2  CL     17.00    0.000000000    0.000000000    0.041466567

 Bond lengths in Bohr (Angstrom)

 1-2  1.500000000
     ( 0.793765816)


 BASIS DATA

   Nr Sym  Nuc  Type         Exponents   Contraction coefficients

    1.1 A     1  1s          18.731137     0.033495
                              2.825394     0.234727
                              0.640122     0.813757
    2.1 A     1  1s           0.161278     1.000000
    3.1 A     2  1s       25180.100000     0.001833
                           3780.350000     0.014034
                            860.474000     0.069097
                            242.145000     0.237452
                             77.334900     0.483034
                             26.247000     0.339856
    4.1 A     2  1s         491.765000    -0.002297
                            116.984000    -0.030714
                             37.415300    -0.112528
                             13.783400     0.045016
                              5.452150     0.589353
                              2.225880     0.465206
    5.1 A     2  1s           3.186490    -0.251827
                              1.144270     0.061589
                              0.420377     1.060180
    6.1 A     2  1s           0.142657     1.000000
    7.1 A     2  2px        491.765000     0.003989
                            116.984000     0.030318
                             37.415300     0.129880
                             13.783400     0.327951
                              5.452150     0.453527
                              2.225880     0.252154
    8.1 A     2  2py        491.765000     0.003989
                            116.984000     0.030318
                             37.415300     0.129880
                             13.783400     0.327951
                              5.452150     0.453527
                              2.225880     0.252154
    9.1 A     2  2pz        491.765000     0.003989
                            116.984000     0.030318
                             37.415300     0.129880
                             13.783400     0.327951
                              5.452150     0.453527
                              2.225880     0.252154
   10.1 A     2  2px          3.186490    -0.014299
                              1.144270     0.323572
                              0.420377     0.743507
   11.1 A     2  2py          3.186490    -0.014299
                              1.144270     0.323572
                              0.420377     0.743507
   12.1 A     2  2pz          3.186490    -0.014299
                              1.144270     0.323572
                              0.420377     0.743507
   13.1 A     2  2px          0.142657     1.000000
   14.1 A     2  2py          0.142657     1.000000
   15.1 A     2  2pz          0.142657     1.000000

 NUCLEAR CHARGE:                   18
 NUMBER OF PRIMITIVE AOS:          50
 NUMBER OF SYMMETRY AOS:           50
 NUMBER OF CONTRACTIONS:           15   (   15A   )
 NUMBER OF CORE ORBITALS:           5   (    5A   )
 NUMBER OF VALENCE ORBITALS:        5   (    5A   )


 NUCLEAR REPULSION ENERGY   11.33333333

 EXTRA SYMMETRY OF AOS IN SYMMETRY 1:   1 1 1 1 1 1 2 3 1 2   3 1 2 3 1

 Eigenvalues of metric

         1 0.130E-01 0.193E+00 0.223E+00 0.323E+00 0.323E+00 0.485E+00 0.687E+00 0.942E+00


 Contracted 2-electron integrals neglected if value below      1.0D-11
 AO integral compression algorithm  1   Integral accuracy      1.0D-11

     0.262 MB (compressed) written to integral file ( 54.9%)


 NUMBER OF SORTED TWO-ELECTRON INTEGRALS:       7260.     BUFFER LENGTH:  32768
 NUMBER OF SEGMENTS:   1  SEGMENT LENGTH:       7260      RECORD LENGTH: 524288

 Memory used in sort:       0.56 MW

 SORT1 READ       16285. AND WROTE        1902. INTEGRALS IN      1 RECORDS. CPU TIME:     0.00 SEC, REAL TIME:     0.00 SEC
 SORT2 READ        1902. AND WROTE        7260. INTEGRALS IN      1 RECORDS. CPU TIME:     0.01 SEC, REAL TIME:     0.01 SEC

 FILE SIZES:   FILE 1:    30.2 MBYTE,  FILE 4:     4.2 MBYTE,   TOTAL:     34.4 MBYTE

 OPERATOR DM      FOR CENTER  0  COORDINATES:    0.000000    0.000000    0.000000


 **********************************************************************************************************************************
 DATASETS  * FILE   NREC   LENGTH (MB)   RECORD NAMES
              1      19       29.97       500      700      610      900      950      970     1000      129      960     1100   
                                          VAR     GEOM    BASINP   SYMINP    ZMAT    AOBASIS   BASIS     P2S    ABASIS      S 
                                         1400     1410     1200     1210     1080     1600     1650     1300     1700   
                                           T        V       H0       H01     AOSYM     SMH    MOLCAS    ERIS     OPER   

              3       5       14.77       500      610      700     1000     2100   
                                          VAR    BASINP    GEOM     BASIS     RHF  

 PROGRAMS   *        TOTAL       INT   RESTART
 CPU TIMES  *         0.34      0.14      0.02
 REAL TIME  *         0.48 SEC
 DISK USED  *        49.44 MB
 **********************************************************************************************************************************


 PROGRAM * BCCD (Closed-shell Brueckner coupled-cluster)     Authors: C. Hampel, H.-J. Werner, 1991, M. Deegan, P.J. Knowles, 1992


 Input parameters for THRESH:

 ENERGY   =    1.00D-10
 COEFF    =    1.00D-12
 PRINTCI  =    0.000000
 THRPRINT =    0.000000

 Convergence thresholds:  THRVAR = 1.00D-24  THRDEN = 1.00D-10

 Number of closed-shell orbitals:   9 (   9 )
 Number of external orbitals:       6 (   6 )

 Molecular orbitals read from record     2100.3  Type=RHF/CANONICAL (state 1.1)

 Number of N-1 electron functions:               9
 Number of N-2 electron functions:              45
 Number of singly external CSFs:                54
 Number of doubly external CSFs:              1485
 Total number of CSFs:                        1540

 Brueckner orbitals will be computed and saved on record    2150.2

 Length of J-op  integral file:               0.00 MB
 Length of K-op  integral file:               0.05 MB

 Integral transformation finished. Total CPU:   0.00 sec, npass=  1  Memory used:   0.09 MW

 Reference energy:                   -459.60831721

 MP2 singles energy:                   -0.00000000
 MP2 singlet pair energy:              -0.02869034
 MP2 triplet pair energy:              -0.01086841
 MP2 correlation energy:               -0.03955875
 MP2 total energy:                   -459.64787597

 SCS-MP2 correlation energy:           -0.04119098   (PS=  1.200000  PT=  0.333333)
 SCS-MP2 total energy:               -459.64950819

 ITER.      SQ.NORM     CORR.ENERGY   TOTAL ENERGY   ENERGY CHANGE        DEN1      VAR(S)    VAR(P)  DIIS     TIME  TIME/IT
   1      1.01795111    -0.04620147  -459.65451868    -0.00664271    -0.00498534  0.18D-03  0.33D-03  1  1     0.02     0.01
   2      1.01957097    -0.04681817  -459.65486806    -0.00061670    -0.00233840  0.68D-05  0.36D-04  2  2     0.03     0.02
   3      1.01968692    -0.04696928  -459.65488436    -0.00015111    -0.00009071  0.11D-06  0.97D-06  3  3     0.05     0.02
   4      1.01969083    -0.04697838  -459.65488335    -0.00000910    -0.00000428  0.15D-07  0.40D-07  4  4     0.06     0.01
   5      1.01969099    -0.04697604  -459.65488444     0.00000235     0.00000150  0.56D-09  0.58D-09  5  5     0.07     0.01
   6      1.01969109    -0.04697616  -459.65488443    -0.00000013    -0.00000021  0.23D-10  0.14D-10  6  6     0.08     0.01
   7      1.01969106    -0.04697617  -459.65488443    -0.00000000     0.00000003  0.63D-12  0.56D-12  6  1     0.09     0.01
   8      1.01969107    -0.04697616  -459.65488443     0.00000001    -0.00000000  0.13D-13  0.24D-13  6  2     0.10     0.01
   9      1.01969107    -0.04697616  -459.65488443     0.00000000    -0.00000000  0.69D-15  0.15D-14  6  3     0.11     0.01
  10      1.01969107    -0.04697616  -459.65488443    -0.00000000    -0.00000000  0.27D-16  0.30D-16  6  4     0.12     0.01
  11      1.01969107    -0.04697616  -459.65488443    -0.00000000    -0.00000000  0.20D-17  0.25D-17  6  5     0.13     0.01
  12      1.01969107    -0.04697616  -459.65488443    -0.00000000    -0.00000000  0.54D-19  0.77D-19  6  3     0.14     0.01
  13      1.01969107    -0.04697616  -459.65488443    -0.00000000    -0.00000000  0.85D-21  0.28D-20  6  6     0.14     0.01
  14      1.01969107    -0.04697616  -459.65488443     0.00000000    -0.00000000  0.20D-22  0.53D-22  6  1     0.15     0.01
  15      1.01969107    -0.04697616  -459.65488443    -0.00000000    -0.00000000  0.12D-23  0.25D-23  6  2     0.16     0.01
  16      1.01969107    -0.04697616  -459.65488443     0.00000000     0.00000000  0.55D-25  0.56D-25  6  4     0.17     0.01

 Norm of t1 vector:      0.00000000      S-energy:    -0.00000000      T1 diagnostic:  0.00000000

 Orbital rotation generators (print threshold =  0.000E+00):

         I         SYM. A    A   T(IA)

         1         1         1      0.00000079
         1         1         2     -0.00000107
         1         1         3      0.00000279
         1         1         4     -0.00000000
         1         1         5      0.00000000
         1         1         6      0.00000072
         2         1         1     -0.00010822
         2         1         2      0.00010060
         2         1         3     -0.00019092
         2         1         4      0.00000000
         2         1         5     -0.00000000
         2         1         6     -0.00011447
         3         1         1      0.00017616
         3         1         2     -0.00017690
         3         1         3     -0.00034409
         3         1         4     -0.00000000
         3         1         5      0.00000000
         3         1         6      0.00031333
         4         1         1      0.00000000
         4         1         2     -0.00000000
         4         1         3     -0.00000000
         4         1         4      0.00055607
         4         1         5      0.00004220
         4         1         6      0.00000000
         5         1         1      0.00000000
         5         1         2     -0.00000000
         5         1         3     -0.00000000
         5         1         4      0.00004220
         5         1         5     -0.00055607
         5         1         6      0.00000000
         6         1         1     -0.00028070
         6         1         2     -0.00287337
         6         1         3      0.00153267
         6         1         4      0.00000000
         6         1         5     -0.00000000
         6         1         6     -0.00079465
         7         1         1     -0.00087791
         7         1         2      0.00194857
         7         1         3      0.00557526
         7         1         4      0.00000000
         7         1         5     -0.00000000
         7         1         6     -0.00103329
         8         1         1     -0.00000000
         8         1         2     -0.00000000
         8         1         3     -0.00000000
         8         1         4      0.00671168
         8         1         5     -0.00117964
         8         1         6     -0.00000000
         9         1         1     -0.00000000
         9         1         2      0.00000000
         9         1         3      0.00000000
         9         1         4      0.00117964
         9         1         5      0.00671168
         9         1         6      0.00000000

 Doubles amplitudes (print threshold =  0.000E+00):

         I         J         SYM. A    SYM. B    A         B      T(IJ, AB)

         1         1         1         1         1         1     -0.00000752
         1         1         1         1         1         2      0.00001293
         1         1         1         1         1         3     -0.00000676
         1         1         1         1         1         4      0.00000000
         1         1         1         1         1         5     -0.00000000
         1         1         1         1         1         6     -0.00001917
         1         1         1         1         2         1      0.00001293
         1         1         1         1         2         2     -0.00001383
         1         1         1         1         2         3      0.00000807
         1         1         1         1         2         4     -0.00000000
         1         1         1         1         2         5      0.00000000
         1         1         1         1         2         6      0.00002722
         1         1         1         1         3         1     -0.00000676
         1         1         1         1         3         2      0.00000807
         1         1         1         1         3         3     -0.00004858
         1         1         1         1         3         4      0.00000000
         1         1         1         1         3         5     -0.00000000
         1         1         1         1         3         6      0.00000230
         1         1         1         1         4         1      0.00000000
         1         1         1         1         4         2     -0.00000000
         1         1         1         1         4         3      0.00000000
         1         1         1         1         4         4     -0.00004328
         1         1         1         1         4         5      0.00000000
         1         1         1         1         4         6     -0.00000000
         1         1         1         1         5         1     -0.00000000
         1         1         1         1         5         2      0.00000000
         1         1         1         1         5         3     -0.00000000
         1         1         1         1         5         4      0.00000000
         1         1         1         1         5         5     -0.00004328
         1         1         1         1         5         6      0.00000000
         1         1         1         1         6         1     -0.00001917
         1         1         1         1         6         2      0.00002722
         1         1         1         1         6         3      0.00000230
         1         1         1         1         6         4     -0.00000000
         1         1         1         1         6         5      0.00000000
         1         1         1         1         6         6     -0.00004853
         2         1         1         1         1         1      0.00000237
         2         1         1         1         1         2     -0.00000121
         2         1         1         1         1         3      0.00001518
         2         1         1         1         1         4     -0.00000000
         2         1         1         1         1         5     -0.00000000
         2         1         1         1         1         6     -0.00000189
         2         1         1         1         2         1     -0.00000126
         2         1         1         1         2         2      0.00000337
         2         1         1         1         2         3     -0.00001981
         2         1         1         1         2         4     -0.00000000
         2         1         1         1         2         5      0.00000000
         2         1         1         1         2         6      0.00000365
         2         1         1         1         3         1      0.00001440
         2         1         1         1         3         2     -0.00001886
         2         1         1         1         3         3      0.00000475
         2         1         1         1         3         4      0.00000000
         2         1         1         1         3         5     -0.00000000
         2         1         1         1         3         6      0.00003294
         2         1         1         1         4         1     -0.00000000
         2         1         1         1         4         2     -0.00000000
         2         1         1         1         4         3      0.00000000
         2         1         1         1         4         4     -0.00003528
         2         1         1         1         4         5      0.00000000
         2         1         1         1         4         6     -0.00000000
         2         1         1         1         5         1     -0.00000000
         2         1         1         1         5         2      0.00000000
         2         1         1         1         5         3     -0.00000000
         2         1         1         1         5         4      0.00000000
         2         1         1         1         5         5     -0.00003528
         2         1         1         1         5         6      0.00000000
         2         1         1         1         6         1     -0.00000070
         2         1         1         1         6         2      0.00000223
         2         1         1         1         6         3      0.00003316
         2         1         1         1         6         4     -0.00000000
         2         1         1         1         6         5      0.00000000
         2         1         1         1         6         6     -0.00001473
         2         2         1         1         1         1     -0.00013023
         2         2         1         1         1         2      0.00019399
         2         2         1         1         1         3     -0.00018897
         2         2         1         1         1         4      0.00000000
         2         2         1         1         1         5     -0.00000000
         2         2         1         1         1         6     -0.00025502
         2         2         1         1         2         1      0.00019399
         2         2         1         1         2         2     -0.00022073
         2         2         1         1         2         3      0.00022979
         2         2         1         1         2         4     -0.00000000
         2         2         1         1         2         5      0.00000000
         2         2         1         1         2         6      0.00032980
         2         2         1         1         3         1     -0.00018897
         2         2         1         1         3         2      0.00022979
         2         2         1         1         3         3     -0.00063211
         2         2         1         1         3         4      0.00000000
         2         2         1         1         3         5     -0.00000000
         2         2         1         1         3         6     -0.00018776
         2         2         1         1         4         1      0.00000000
         2         2         1         1         4         2     -0.00000000
         2         2         1         1         4         3      0.00000000
         2         2         1         1         4         4     -0.00033972
         2         2         1         1         4         5      0.00000000
         2         2         1         1         4         6      0.00000000
         2         2         1         1         5         1     -0.00000000
         2         2         1         1         5         2      0.00000000
         2         2         1         1         5         3     -0.00000000
         2         2         1         1         5         4      0.00000000
         2         2         1         1         5         5     -0.00033972
         2         2         1         1         5         6     -0.00000000
         2         2         1         1         6         1     -0.00025502
         2         2         1         1         6         2      0.00032980
         2         2         1         1         6         3     -0.00018776
         2         2         1         1         6         4      0.00000000
         2         2         1         1         6         5     -0.00000000
         2         2         1         1         6         6     -0.00051405
         3         1         1         1         1         1      0.00000195
         3         1         1         1         1         2     -0.00000220
         3         1         1         1         1         3     -0.00001626
         3         1         1         1         1         4      0.00000000
         3         1         1         1         1         5     -0.00000000
         3         1         1         1         1         6      0.00001053
         3         1         1         1         2         1     -0.00000115
         3         1         1         1         2         2      0.00000147
         3         1         1         1         2         3      0.00001788
         3         1         1         1         2         4      0.00000000
         3         1         1         1         2         5     -0.00000000
         3         1         1         1         2         6     -0.00000972
         3         1         1         1         3         1      0.00001550
         3         1         1         1         3         2     -0.00001984
         3         1         1         1         3         3     -0.00000669
         3         1         1         1         3         4     -0.00000000
         3         1         1         1         3         5      0.00000000
         3         1         1         1         3         6      0.00003896
         3         1         1         1         4         1      0.00000000
         3         1         1         1         4         2     -0.00000000
         3         1         1         1         4         3      0.00000000
         3         1         1         1         4         4     -0.00000083
         3         1         1         1         4         5      0.00000000
         3         1         1         1         4         6     -0.00000000
         3         1         1         1         5         1     -0.00000000
         3         1         1         1         5         2      0.00000000
         3         1         1         1         5         3     -0.00000000
         3         1         1         1         5         4      0.00000000
         3         1         1         1         5         5     -0.00000083
         3         1         1         1         5         6      0.00000000
         3         1         1         1         6         1     -0.00000145
         3         1         1         1         6         2      0.00000189
         3         1         1         1         6         3     -0.00003665
         3         1         1         1         6         4     -0.00000000
         3         1         1         1         6         5     -0.00000000
         3         1         1         1         6         6      0.00001047
         3         2         1         1         1         1      0.00017336
         3         2         1         1         1         2     -0.00020521
         3         2         1         1         1         3      0.00017870
         3         2         1         1         1         4     -0.00000000
         3         2         1         1         1         5      0.00000000
         3         2         1         1         1         6      0.00028568
         3         2         1         1         2         1     -0.00020722
         3         2         1         1         2         2      0.00026788
         3         2         1         1         2         3     -0.00019617
         3         2         1         1         2         4     -0.00000000
         3         2         1         1         2         5      0.00000000
         3         2         1         1         2         6     -0.00039547
         3         2         1         1         3         1     -0.00021408
         3         2         1         1         3         2      0.00028121
         3         2         1         1         3         3     -0.00083035
         3         2         1         1         3         4      0.00000000
         3         2         1         1         3         5     -0.00000000
         3         2         1         1         3         6     -0.00018215
         3         2         1         1         4         1     -0.00000000
         3         2         1         1         4         2     -0.00000000
         3         2         1         1         4         3     -0.00000000
         3         2         1         1         4         4      0.00000201
         3         2         1         1         4         5     -0.00000000
         3         2         1         1         4         6      0.00000000
         3         2         1         1         5         1      0.00000000
         3         2         1         1         5         2      0.00000000
         3         2         1         1         5         3      0.00000000
         3         2         1         1         5         4     -0.00000000
         3         2         1         1         5         5      0.00000201
         3         2         1         1         5         6     -0.00000000
         3         2         1         1         6         1      0.00042058
         3         2         1         1         6         2     -0.00054612
         3         2         1         1         6         3      0.00065921
         3         2         1         1         6         4      0.00000000
         3         2         1         1         6         5     -0.00000000
         3         2         1         1         6         6      0.00066148
         3         3         1         1         1         1     -0.00015642
         3         3         1         1         1         2      0.00028585
         3         3         1         1         1         3      0.00027598
         3         3         1         1         1         4     -0.00000000
         3         3         1         1         1         5      0.00000000
         3         3         1         1         1         6     -0.00052442
         3         3         1         1         2         1      0.00028585
         3         3         1         1         2         2     -0.00033241
         3         3         1         1         2         3     -0.00032093
         3         3         1         1         2         4      0.00000000
         3         3         1         1         2         5     -0.00000000
         3         3         1         1         2         6      0.00069860
         3         3         1         1         3         1      0.00027598
         3         3         1         1         3         2     -0.00032093
         3         3         1         1         3         3     -0.00123362
         3         3         1         1         3         4     -0.00000000
         3         3         1         1         3         5      0.00000000
         3         3         1         1         3         6      0.00100245
         3         3         1         1         4         1     -0.00000000
         3         3         1         1         4         2      0.00000000
         3         3         1         1         4         3     -0.00000000
         3         3         1         1         4         4     -0.00020200
         3         3         1         1         4         5      0.00000000
         3         3         1         1         4         6     -0.00000000
         3         3         1         1         5         1      0.00000000
         3         3         1         1         5         2     -0.00000000
         3         3         1         1         5         3      0.00000000
         3         3         1         1         5         4      0.00000000
         3         3         1         1         5         5     -0.00020200
         3         3         1         1         5         6      0.00000000
         3         3         1         1         6         1     -0.00052442
         3         3         1         1         6         2      0.00069860
         3         3         1         1         6         3      0.00100245
         3         3         1         1         6         4     -0.00000000
         3         3         1         1         6         5      0.00000000
         3         3         1         1         6         6     -0.00150429
         4         1         1         1         1         1     -0.00000000
         4         1         1         1         1         2     -0.00000000
         4         1         1         1         1         3     -0.00000000
         4         1         1         1         1         4      0.00001424
         4         1         1         1         1         5      0.00000108
         4         1         1         1         1         6      0.00000000
         4         1         1         1         2         1     -0.00000000
         4         1         1         1         2         2      0.00000000
         4         1         1         1         2         3     -0.00000000
         4         1         1         1         2         4     -0.00001989
         4         1         1         1         2         5     -0.00000151
         4         1         1         1         2         6      0.00000000
         4         1         1         1         3         1      0.00000000
         4         1         1         1         3         2     -0.00000000
         4         1         1         1         3         3      0.00000000
         4         1         1         1         3         4      0.00003268
         4         1         1         1         3         5      0.00000248
         4         1         1         1         3         6      0.00000000
         4         1         1         1         4         1     -0.00001035
         4         1         1         1         4         2      0.00001269
         4         1         1         1         4         3     -0.00002203
         4         1         1         1         4         4     -0.00000000
         4         1         1         1         4         5      0.00000000
         4         1         1         1         4         6     -0.00001569
         4         1         1         1         5         1     -0.00000079
         4         1         1         1         5         2      0.00000096
         4         1         1         1         5         3     -0.00000167
         4         1         1         1         5         4      0.00000000
         4         1         1         1         5         5     -0.00000000
         4         1         1         1         5         6     -0.00000119
         4         1         1         1         6         1     -0.00000000
         4         1         1         1         6         2     -0.00000000
         4         1         1         1         6         3      0.00000000
         4         1         1         1         6         4      0.00002026
         4         1         1         1         6         5      0.00000154
         4         1         1         1         6         6      0.00000000
         4         2         1         1         1         1     -0.00000000
         4         2         1         1         1         2      0.00000000
         4         2         1         1         1         3     -0.00000000
         4         2         1         1         1         4      0.00015195
         4         2         1         1         1         5      0.00001153
         4         2         1         1         1         6     -0.00000000
         4         2         1         1         2         1      0.00000000
         4         2         1         1         2         2     -0.00000000
         4         2         1         1         2         3      0.00000000
         4         2         1         1         2         4     -0.00017413
         4         2         1         1         2         5     -0.00001321
         4         2         1         1         2         6      0.00000000
         4         2         1         1         3         1     -0.00000000
         4         2         1         1         3         2      0.00000000
         4         2         1         1         3         3     -0.00000000
         4         2         1         1         3         4      0.00030474
         4         2         1         1         3         5      0.00002313
         4         2         1         1         3         6     -0.00000000
         4         2         1         1         4         1      0.00047210
         4         2         1         1         4         2     -0.00057723
         4         2         1         1         4         3      0.00095137
         4         2         1         1         4         4      0.00000000
         4         2         1         1         4         5     -0.00000000
         4         2         1         1         4         6      0.00070594
         4         2         1         1         5         1      0.00003583
         4         2         1         1         5         2     -0.00004381
         4         2         1         1         5         3      0.00007220
         4         2         1         1         5         4     -0.00000000
         4         2         1         1         5         5      0.00000000
         4         2         1         1         5         6      0.00005357
         4         2         1         1         6         1     -0.00000000
         4         2         1         1         6         2      0.00000000
         4         2         1         1         6         3     -0.00000000
         4         2         1         1         6         4      0.00024308
         4         2         1         1         6         5      0.00001845
         4         2         1         1         6         6     -0.00000000
         4         3         1         1         1         1      0.00000000
         4         3         1         1         1         2      0.00000000
         4         3         1         1         1         3      0.00000000
         4         3         1         1         1         4     -0.00006368
         4         3         1         1         1         5     -0.00000483
         4         3         1         1         1         6      0.00000000
         4         3         1         1         2         1      0.00000000
         4         3         1         1         2         2     -0.00000000
         4         3         1         1         2         3     -0.00000000
         4         3         1         1         2         4      0.00007426
         4         3         1         1         2         5      0.00000564
         4         3         1         1         2         6      0.00000000
         4         3         1         1         3         1      0.00000000
         4         3         1         1         3         2      0.00000000
         4         3         1         1         3         3      0.00000000
         4         3         1         1         3         4      0.00015124
         4         3         1         1         3         5      0.00001148
         4         3         1         1         3         6      0.00000000
         4         3         1         1         4         1     -0.00048167
         4         3         1         1         4         2      0.00058312
         4         3         1         1         4         3      0.00115804
         4         3         1         1         4         4     -0.00000000
         4         3         1         1         4         5     -0.00000000
         4         3         1         1         4         6     -0.00142164
         4         3         1         1         5         1     -0.00003655
         4         3         1         1         5         2      0.00004425
         4         3         1         1         5         3      0.00008788
         4         3         1         1         5         4      0.00000000
         4         3         1         1         5         5     -0.00000000
         4         3         1         1         5         6     -0.00010789
         4         3         1         1         6         1     -0.00000000
         4         3         1         1         6         2      0.00000000
         4         3         1         1         6         3     -0.00000000
         4         3         1         1         6         4     -0.00020015
         4         3         1         1         6         5     -0.00001519
         4         3         1         1         6         6      0.00000000
         4         4         1         1         1         1     -0.00005389
         4         4         1         1         1         2      0.00010841
         4         4         1         1         1         3     -0.00009735
         4         4         1         1         1         4     -0.00000000
         4         4         1         1         1         5      0.00000000
         4         4         1         1         1         6     -0.00013752
         4         4         1         1         2         1      0.00010841
         4         4         1         1         2         2     -0.00007705
         4         4         1         1         2         3      0.00009424
         4         4         1         1         2         4      0.00000000
         4         4         1         1         2         5     -0.00000000
         4         4         1         1         2         6      0.00017442
         4         4         1         1         3         1     -0.00009735
         4         4         1         1         3         2      0.00009424
         4         4         1         1         3         3     -0.00033704
         4         4         1         1         3         4     -0.00000000
         4         4         1         1         3         5      0.00000000
         4         4         1         1         3         6     -0.00007932
         4         4         1         1         4         1     -0.00000000
         4         4         1         1         4         2      0.00000000
         4         4         1         1         4         3     -0.00000000
         4         4         1         1         4         4     -0.00216890
         4         4         1         1         4         5     -0.00014951
         4         4         1         1         4         6     -0.00000000
         4         4         1         1         5         1      0.00000000
         4         4         1         1         5         2     -0.00000000
         4         4         1         1         5         3      0.00000000
         4         4         1         1         5         4     -0.00014951
         4         4         1         1         5         5     -0.00021014
         4         4         1         1         5         6      0.00000000
         4         4         1         1         6         1     -0.00013752
         4         4         1         1         6         2      0.00017442
         4         4         1         1         6         3     -0.00007932
         4         4         1         1         6         4     -0.00000000
         4         4         1         1         6         5      0.00000000
         4         4         1         1         6         6     -0.00030543
         5         1         1         1         1         1     -0.00000000
         5         1         1         1         1         2     -0.00000000
         5         1         1         1         1         3     -0.00000000
         5         1         1         1         1         4      0.00000108
         5         1         1         1         1         5     -0.00001424
         5         1         1         1         1         6      0.00000000
         5         1         1         1         2         1     -0.00000000
         5         1         1         1         2         2      0.00000000
         5         1         1         1         2         3     -0.00000000
         5         1         1         1         2         4     -0.00000151
         5         1         1         1         2         5      0.00001989
         5         1         1         1         2         6      0.00000000
         5         1         1         1         3         1     -0.00000000
         5         1         1         1         3         2     -0.00000000
         5         1         1         1         3         3      0.00000000
         5         1         1         1         3         4      0.00000248
         5         1         1         1         3         5     -0.00003268
         5         1         1         1         3         6      0.00000000
         5         1         1         1         4         1     -0.00000079
         5         1         1         1         4         2      0.00000096
         5         1         1         1         4         3     -0.00000167
         5         1         1         1         4         4     -0.00000000
         5         1         1         1         4         5      0.00000000
         5         1         1         1         4         6     -0.00000119
         5         1         1         1         5         1      0.00001035
         5         1         1         1         5         2     -0.00001269
         5         1         1         1         5         3      0.00002203
         5         1         1         1         5         4      0.00000000
         5         1         1         1         5         5     -0.00000000
         5         1         1         1         5         6      0.00001569
         5         1         1         1         6         1      0.00000000
         5         1         1         1         6         2     -0.00000000
         5         1         1         1         6         3      0.00000000
         5         1         1         1         6         4      0.00000154
         5         1         1         1         6         5     -0.00002026
         5         1         1         1         6         6     -0.00000000
         5         2         1         1         1         1     -0.00000000
         5         2         1         1         1         2      0.00000000
         5         2         1         1         1         3     -0.00000000
         5         2         1         1         1         4      0.00001153
         5         2         1         1         1         5     -0.00015195
         5         2         1         1         1         6     -0.00000000
         5         2         1         1         2         1      0.00000000
         5         2         1         1         2         2     -0.00000000
         5         2         1         1         2         3      0.00000000
         5         2         1         1         2         4     -0.00001321
         5         2         1         1         2         5      0.00017413
         5         2         1         1         2         6     -0.00000000
         5         2         1         1         3         1     -0.00000000
         5         2         1         1         3         2      0.00000000
         5         2         1         1         3         3     -0.00000000
         5         2         1         1         3         4      0.00002313
         5         2         1         1         3         5     -0.00030474
         5         2         1         1         3         6     -0.00000000
         5         2         1         1         4         1      0.00003583
         5         2         1         1         4         2     -0.00004381
         5         2         1         1         4         3      0.00007220
         5         2         1         1         4         4      0.00000000
         5         2         1         1         4         5     -0.00000000
         5         2         1         1         4         6      0.00005357
         5         2         1         1         5         1     -0.00047210
         5         2         1         1         5         2      0.00057723
         5         2         1         1         5         3     -0.00095137
         5         2         1         1         5         4     -0.00000000
         5         2         1         1         5         5      0.00000000
         5         2         1         1         5         6     -0.00070594
         5         2         1         1         6         1     -0.00000000
         5         2         1         1         6         2      0.00000000
         5         2         1         1         6         3     -0.00000000
         5         2         1         1         6         4      0.00001845
         5         2         1         1         6         5     -0.00024308
         5         2         1         1         6         6     -0.00000000
         5         3         1         1         1         1      0.00000000
         5         3         1         1         1         2      0.00000000
         5         3         1         1         1         3      0.00000000
         5         3         1         1         1         4     -0.00000483
         5         3         1         1         1         5      0.00006368
         5         3         1         1         1         6      0.00000000
         5         3         1         1         2         1      0.00000000
         5         3         1         1         2         2     -0.00000000
         5         3         1         1         2         3     -0.00000000
         5         3         1         1         2         4      0.00000564
         5         3         1         1         2         5     -0.00007426
         5         3         1         1         2         6      0.00000000
         5         3         1         1         3         1      0.00000000
         5         3         1         1         3         2      0.00000000
         5         3         1         1         3         3      0.00000000
         5         3         1         1         3         4      0.00001148
         5         3         1         1         3         5     -0.00015124
         5         3         1         1         3         6      0.00000000
         5         3         1         1         4         1     -0.00003655
         5         3         1         1         4         2      0.00004425
         5         3         1         1         4         3      0.00008788
         5         3         1         1         4         4     -0.00000000
         5         3         1         1         4         5      0.00000000
         5         3         1         1         4         6     -0.00010789
         5         3         1         1         5         1      0.00048167
         5         3         1         1         5         2     -0.00058312
         5         3         1         1         5         3     -0.00115804
         5         3         1         1         5         4     -0.00000000
         5         3         1         1         5         5     -0.00000000
         5         3         1         1         5         6      0.00142164
         5         3         1         1         6         1     -0.00000000
         5         3         1         1         6         2      0.00000000
         5         3         1         1         6         3     -0.00000000
         5         3         1         1         6         4     -0.00001519
         5         3         1         1         6         5      0.00020015
         5         3         1         1         6         6      0.00000000
         5         4         1         1         1         1     -0.00000000
         5         4         1         1         1         2     -0.00000000
         5         4         1         1         1         3      0.00000000
         5         4         1         1         1         4     -0.00000000
         5         4         1         1         1         5      0.00000000
         5         4         1         1         1         6      0.00000000
         5         4         1         1         2         1     -0.00000000
         5         4         1         1         2         2     -0.00000000
         5         4         1         1         2         3      0.00000000
         5         4         1         1         2         4      0.00000000
         5         4         1         1         2         5     -0.00000000
         5         4         1         1         2         6      0.00000000
         5         4         1         1         3         1      0.00000000
         5         4         1         1         3         2      0.00000000
         5         4         1         1         3         3     -0.00000000
         5         4         1         1         3         4     -0.00000000
         5         4         1         1         3         5      0.00000000
         5         4         1         1         3         6     -0.00000000
         5         4         1         1         4         1     -0.00000000
         5         4         1         1         4         2      0.00000000
         5         4         1         1         4         3     -0.00000000
         5         4         1         1         4         4     -0.00014951
         5         4         1         1         4         5      0.00021506
         5         4         1         1         4         6     -0.00000000
         5         4         1         1         5         1     -0.00000000
         5         4         1         1         5         2     -0.00000000
         5         4         1         1         5         3      0.00000000
         5         4         1         1         5         4      0.00174370
         5         4         1         1         5         5      0.00014951
         5         4         1         1         5         6     -0.00000000
         5         4         1         1         6         1      0.00000000
         5         4         1         1         6         2      0.00000000
         5         4         1         1         6         3     -0.00000000
         5         4         1         1         6         4      0.00000000
         5         4         1         1         6         5      0.00000000
         5         4         1         1         6         6     -0.00000000
         5         5         1         1         1         1     -0.00005389
         5         5         1         1         1         2      0.00010841
         5         5         1         1         1         3     -0.00009735
         5         5         1         1         1         4     -0.00000000
         5         5         1         1         1         5      0.00000000
         5         5         1         1         1         6     -0.00013752
         5         5         1         1         2         1      0.00010841
         5         5         1         1         2         2     -0.00007705
         5         5         1         1         2         3      0.00009424
         5         5         1         1         2         4      0.00000000
         5         5         1         1         2         5     -0.00000000
         5         5         1         1         2         6      0.00017442
         5         5         1         1         3         1     -0.00009735
         5         5         1         1         3         2      0.00009424
         5         5         1         1         3         3     -0.00033704
         5         5         1         1         3         4     -0.00000000
         5         5         1         1         3         5      0.00000000
         5         5         1         1         3         6     -0.00007932
         5         5         1         1         4         1     -0.00000000
         5         5         1         1         4         2      0.00000000
         5         5         1         1         4         3     -0.00000000
         5         5         1         1         4         4     -0.00021014
         5         5         1         1         4         5      0.00014951
         5         5         1         1         4         6     -0.00000000
         5         5         1         1         5         1      0.00000000
         5         5         1         1         5         2     -0.00000000
         5         5         1         1         5         3      0.00000000
         5         5         1         1         5         4      0.00014951
         5         5         1         1         5         5     -0.00216890
         5         5         1         1         5         6      0.00000000
         5         5         1         1         6         1     -0.00013752
         5         5         1         1         6         2      0.00017442
         5         5         1         1         6         3     -0.00007932
         5         5         1         1         6         4     -0.00000000
         5         5         1         1         6         5      0.00000000
         5         5         1         1         6         6     -0.00030543
         6         1         1         1         1         1      0.00000011
         6         1         1         1         1         2     -0.00000170
         6         1         1         1         1         3     -0.00000739
         6         1         1         1         1         4      0.00000000
         6         1         1         1         1         5     -0.00000000
         6         1         1         1         1         6      0.00000463
         6         1         1         1         2         1     -0.00000276
         6         1         1         1         2         2      0.00000153
         6         1         1         1         2         3      0.00001251
         6         1         1         1         2         4      0.00000000
         6         1         1         1         2         5     -0.00000000
         6         1         1         1         2         6     -0.00000987
         6         1         1         1         3         1     -0.00000375
         6         1         1         1         3         2      0.00000556
         6         1         1         1         3         3      0.00000258
         6         1         1         1         3         4      0.00000000
         6         1         1         1         3         5     -0.00000000
         6         1         1         1         3         6     -0.00001049
         6         1         1         1         4         1      0.00000000
         6         1         1         1         4         2      0.00000000
         6         1         1         1         4         3      0.00000000
         6         1         1         1         4         4      0.00002352
         6         1         1         1         4         5     -0.00000000
         6         1         1         1         4         6      0.00000000
         6         1         1         1         5         1     -0.00000000
         6         1         1         1         5         2     -0.00000000
         6         1         1         1         5         3     -0.00000000
         6         1         1         1         5         4     -0.00000000
         6         1         1         1         5         5      0.00002352
         6         1         1         1         5         6     -0.00000000
         6         1         1         1         6         1      0.00000162
         6         1         1         1         6         2     -0.00000299
         6         1         1         1         6         3     -0.00001625
         6         1         1         1         6         4      0.00000000
         6         1         1         1         6         5     -0.00000000
         6         1         1         1         6         6      0.00001039
         6         2         1         1         1         1      0.00006964
         6         2         1         1         1         2     -0.00009850
         6         2         1         1         1         3      0.00019461
         6         2         1         1         1         4     -0.00000000
         6         2         1         1         1         5      0.00000000
         6         2         1         1         1         6     -0.00001651
         6         2         1         1         2         1     -0.00007150
         6         2         1         1         2         2     -0.00000023
         6         2         1         1         2         3     -0.00037533
         6         2         1         1         2         4      0.00000000
         6         2         1         1         2         5     -0.00000000
         6         2         1         1         2         6     -0.00007667
         6         2         1         1         3         1      0.00010820
         6         2         1         1         3         2     -0.00018164
         6         2         1         1         3         3      0.00005030
         6         2         1         1         3         4     -0.00000000
         6         2         1         1         3         5      0.00000000
         6         2         1         1         3         6      0.00020594
         6         2         1         1         4         1     -0.00000000
         6         2         1         1         4         2      0.00000000
         6         2         1         1         4         3     -0.00000000
         6         2         1         1         4         4     -0.00034322
         6         2         1         1         4         5     -0.00000000
         6         2         1         1         4         6     -0.00000000
         6         2         1         1         5         1      0.00000000
         6         2         1         1         5         2     -0.00000000
         6         2         1         1         5         3      0.00000000
         6         2         1         1         5         4     -0.00000000
         6         2         1         1         5         5     -0.00034322
         6         2         1         1         5         6      0.00000000
         6         2         1         1         6         1      0.00011681
         6         2         1         1         6         2     -0.00031232
         6         2         1         1         6         3      0.00028982
         6         2         1         1         6         4     -0.00000000
         6         2         1         1         6         5      0.00000000
         6         2         1         1         6         6     -0.00004446
         6         3         1         1         1         1     -0.00015241
         6         3         1         1         1         2      0.00014630
         6         3         1         1         1         3      0.00035511
         6         3         1         1         1         4      0.00000000
         6         3         1         1         1         5      0.00000000
         6         3         1         1         1         6     -0.00032067
         6         3         1         1         2         1      0.00014040
         6         3         1         1         2         2      0.00018695
         6         3         1         1         2         3     -0.00033489
         6         3         1         1         2         4      0.00000000
         6         3         1         1         2         5     -0.00000000
         6         3         1         1         2         6      0.00053815
         6         3         1         1         3         1     -0.00007513
         6         3         1         1         3         2      0.00028129
         6         3         1         1         3         3      0.00010830
         6         3         1         1         3         4     -0.00000000
         6         3         1         1         3         5      0.00000000
         6         3         1         1         3         6     -0.00008124
         6         3         1         1         4         1      0.00000000
         6         3         1         1         4         2      0.00000000
         6         3         1         1         4         3     -0.00000000
         6         3         1         1         4         4      0.00004267
         6         3         1         1         4         5     -0.00000000
         6         3         1         1         4         6      0.00000000
         6         3         1         1         5         1     -0.00000000
         6         3         1         1         5         2     -0.00000000
         6         3         1         1         5         3      0.00000000
         6         3         1         1         5         4      0.00000000
         6         3         1         1         5         5      0.00004267
         6         3         1         1         5         6     -0.00000000
         6         3         1         1         6         1     -0.00028376
         6         3         1         1         6         2      0.00051533
         6         3         1         1         6         3      0.00063009
         6         3         1         1         6         4     -0.00000000
         6         3         1         1         6         5      0.00000000
         6         3         1         1         6         6     -0.00047367
         6         4         1         1         1         1      0.00000000
         6         4         1         1         1         2     -0.00000000
         6         4         1         1         1         3      0.00000000
         6         4         1         1         1         4     -0.00029716
         6         4         1         1         1         5     -0.00002255
         6         4         1         1         1         6     -0.00000000
         6         4         1         1         2         1     -0.00000000
         6         4         1         1         2         2      0.00000000
         6         4         1         1         2         3     -0.00000000
         6         4         1         1         2         4      0.00056495
         6         4         1         1         2         5      0.00004287
         6         4         1         1         2         6     -0.00000000
         6         4         1         1         3         1      0.00000000
         6         4         1         1         3         2     -0.00000000
         6         4         1         1         3         3      0.00000000
         6         4         1         1         3         4     -0.00031893
         6         4         1         1         3         5     -0.00002420
         6         4         1         1         3         6      0.00000000
         6         4         1         1         4         1      0.00018692
         6         4         1         1         4         2     -0.00004552
         6         4         1         1         4         3      0.00016978
         6         4         1         1         4         4     -0.00000000
         6         4         1         1         4         5      0.00000000
         6         4         1         1         4         6      0.00038327
         6         4         1         1         5         1      0.00001419
         6         4         1         1         5         2     -0.00000345
         6         4         1         1         5         3      0.00001288
         6         4         1         1         5         4     -0.00000000
         6         4         1         1         5         5     -0.00000000
         6         4         1         1         5         6      0.00002909
         6         4         1         1         6         1      0.00000000
         6         4         1         1         6         2      0.00000000
         6         4         1         1         6         3      0.00000000
         6         4         1         1         6         4     -0.00051200
         6         4         1         1         6         5     -0.00003886
         6         4         1         1         6         6      0.00000000
         6         5         1         1         1         1      0.00000000
         6         5         1         1         1         2     -0.00000000
         6         5         1         1         1         3      0.00000000
         6         5         1         1         1         4     -0.00002255
         6         5         1         1         1         5      0.00029716
         6         5         1         1         1         6     -0.00000000
         6         5         1         1         2         1     -0.00000000
         6         5         1         1         2         2      0.00000000
         6         5         1         1         2         3     -0.00000000
         6         5         1         1         2         4      0.00004287
         6         5         1         1         2         5     -0.00056495
         6         5         1         1         2         6     -0.00000000
         6         5         1         1         3         1      0.00000000
         6         5         1         1         3         2     -0.00000000
         6         5         1         1         3         3      0.00000000
         6         5         1         1         3         4     -0.00002420
         6         5         1         1         3         5      0.00031893
         6         5         1         1         3         6      0.00000000
         6         5         1         1         4         1      0.00001419
         6         5         1         1         4         2     -0.00000345
         6         5         1         1         4         3      0.00001288
         6         5         1         1         4         4     -0.00000000
         6         5         1         1         4         5     -0.00000000
         6         5         1         1         4         6      0.00002909
         6         5         1         1         5         1     -0.00018692
         6         5         1         1         5         2      0.00004552
         6         5         1         1         5         3     -0.00016978
         6         5         1         1         5         4      0.00000000
         6         5         1         1         5         5     -0.00000000
         6         5         1         1         5         6     -0.00038327
         6         5         1         1         6         1      0.00000000
         6         5         1         1         6         2      0.00000000
         6         5         1         1         6         3      0.00000000
         6         5         1         1         6         4     -0.00003886
         6         5         1         1         6         5      0.00051200
         6         5         1         1         6         6      0.00000000
         6         6         1         1         1         1     -0.00790944
         6         6         1         1         1         2      0.00305846
         6         6         1         1         1         3     -0.00185309
         6         6         1         1         1         4      0.00000000
         6         6         1         1         1         5     -0.00000000
         6         6         1         1         1         6     -0.01069880
         6         6         1         1         2         1      0.00305846
         6         6         1         1         2         2     -0.01362820
         6         6         1         1         2         3      0.00046938
         6         6         1         1         2         4      0.00000000
         6         6         1         1         2         5     -0.00000000
         6         6         1         1         2         6     -0.00424223
         6         6         1         1         3         1     -0.00185309
         6         6         1         1         3         2      0.00046938
         6         6         1         1         3         3     -0.00385554
         6         6         1         1         3         4      0.00000000
         6         6         1         1         3         5     -0.00000000
         6         6         1         1         3         6     -0.00275129
         6         6         1         1         4         1      0.00000000
         6         6         1         1         4         2      0.00000000
         6         6         1         1         4         3      0.00000000
         6         6         1         1         4         4     -0.00671988
         6         6         1         1         4         5      0.00000000
         6         6         1         1         4         6      0.00000000
         6         6         1         1         5         1     -0.00000000
         6         6         1         1         5         2     -0.00000000
         6         6         1         1         5         3     -0.00000000
         6         6         1         1         5         4      0.00000000
         6         6         1         1         5         5     -0.00671988
         6         6         1         1         5         6     -0.00000000
         6         6         1         1         6         1     -0.01069880
         6         6         1         1         6         2     -0.00424223
         6         6         1         1         6         3     -0.00275129
         6         6         1         1         6         4      0.00000000
         6         6         1         1         6         5     -0.00000000
         6         6         1         1         6         6     -0.02223073
         7         1         1         1         1         1     -0.00000014
         7         1         1         1         1         2     -0.00000104
         7         1         1         1         1         3     -0.00000162
         7         1         1         1         1         4      0.00000000
         7         1         1         1         1         5      0.00000000
         7         1         1         1         1         6      0.00000120
         7         1         1         1         2         1      0.00000207
         7         1         1         1         2         2     -0.00000309
         7         1         1         1         2         3     -0.00000530
         7         1         1         1         2         4     -0.00000000
         7         1         1         1         2         5      0.00000000
         7         1         1         1         2         6      0.00000676
         7         1         1         1         3         1     -0.00000739
         7         1         1         1         3         2      0.00000962
         7         1         1         1         3         3      0.00000860
         7         1         1         1         3         4      0.00000000
         7         1         1         1         3         5     -0.00000000
         7         1         1         1         3         6     -0.00002058
         7         1         1         1         4         1      0.00000000
         7         1         1         1         4         2      0.00000000
         7         1         1         1         4         3      0.00000000
         7         1         1         1         4         4      0.00001202
         7         1         1         1         4         5     -0.00000000
         7         1         1         1         4         6      0.00000000
         7         1         1         1         5         1     -0.00000000
         7         1         1         1         5         2     -0.00000000
         7         1         1         1         5         3     -0.00000000
         7         1         1         1         5         4     -0.00000000
         7         1         1         1         5         5      0.00001202
         7         1         1         1         5         6     -0.00000000
         7         1         1         1         6         1      0.00000310
         7         1         1         1         6         2     -0.00000533
         7         1         1         1         6         3     -0.00000460
         7         1         1         1         6         4      0.00000000
         7         1         1         1         6         5     -0.00000000
         7         1         1         1         6         6      0.00000937
         7         2         1         1         1         1     -0.00009459
         7         2         1         1         1         2      0.00009526
         7         2         1         1         1         3      0.00013722
         7         2         1         1         1         4      0.00000000
         7         2         1         1         1         5     -0.00000000
         7         2         1         1         1         6     -0.00022681
         7         2         1         1         2         1     -0.00002528
         7         2         1         1         2         2      0.00012283
         7         2         1         1         2         3      0.00021170
         7         2         1         1         2         4      0.00000000
         7         2         1         1         2         5     -0.00000000
         7         2         1         1         2         6     -0.00007743
         7         2         1         1         3         1      0.00026760
         7         2         1         1         3         2     -0.00026348
[...]
         9         4         1         1         6         1      0.00004643
         9         4         1         1         6         2     -0.00002009
         9         4         1         1         6         3      0.00002249
         9         4         1         1         6         4     -0.00000000
         9         4         1         1         6         5     -0.00000000
         9         4         1         1         6         6      0.00010528
         9         5         1         1         1         1     -0.00013350
         9         5         1         1         1         2      0.00004579
         9         5         1         1         1         3     -0.00010765
         9         5         1         1         1         4      0.00000000
         9         5         1         1         1         5     -0.00000000
         9         5         1         1         1         6     -0.00027445
         9         5         1         1         2         1     -0.00005355
         9         5         1         1         2         2      0.00003076
         9         5         1         1         2         3     -0.00007681
         9         5         1         1         2         4     -0.00000000
         9         5         1         1         2         5      0.00000000
         9         5         1         1         2         6     -0.00005028
         9         5         1         1         3         1     -0.00002282
         9         5         1         1         3         2     -0.00002713
         9         5         1         1         3         3     -0.00008379
         9         5         1         1         3         4      0.00000000
         9         5         1         1         3         5     -0.00000000
         9         5         1         1         3         6     -0.00003111
         9         5         1         1         4         1      0.00000000
         9         5         1         1         4         2     -0.00000000
         9         5         1         1         4         3      0.00000000
         9         5         1         1         4         4     -0.00012778
         9         5         1         1         4         5      0.00018489
         9         5         1         1         4         6      0.00000000
         9         5         1         1         5         1     -0.00000000
         9         5         1         1         5         2      0.00000000
         9         5         1         1         5         3     -0.00000000
         9         5         1         1         5         4     -0.00010191
         9         5         1         1         5         5      0.00071420
         9         5         1         1         5         6     -0.00000000
         9         5         1         1         6         1     -0.00018205
         9         5         1         1         6         2      0.00007875
         9         5         1         1         6         3     -0.00008816
         9         5         1         1         6         4      0.00000000
         9         5         1         1         6         5     -0.00000000
         9         5         1         1         6         6     -0.00041276
         9         6         1         1         1         1     -0.00000000
         9         6         1         1         1         2      0.00000000
         9         6         1         1         1         3      0.00000000
         9         6         1         1         1         4     -0.00112504
         9         6         1         1         1         5     -0.00640103
         9         6         1         1         1         6     -0.00000000
         9         6         1         1         2         1      0.00000000
         9         6         1         1         2         2     -0.00000000
         9         6         1         1         2         3      0.00000000
         9         6         1         1         2         4      0.00035871
         9         6         1         1         2         5      0.00204090
         9         6         1         1         2         6     -0.00000000
         9         6         1         1         3         1      0.00000000
         9         6         1         1         3         2      0.00000000
         9         6         1         1         3         3     -0.00000000
         9         6         1         1         3         4     -0.00085700
         9         6         1         1         3         5     -0.00487599
         9         6         1         1         3         6     -0.00000000
         9         6         1         1         4         1     -0.00169564
         9         6         1         1         4         2      0.00208061
         9         6         1         1         4         3     -0.00157897
         9         6         1         1         4         4      0.00000000
         9         6         1         1         4         5     -0.00000000
         9         6         1         1         4         6     -0.00139950
         9         6         1         1         5         1     -0.00964748
         9         6         1         1         5         2      0.01183782
         9         6         1         1         5         3     -0.00898369
         9         6         1         1         5         4     -0.00000000
         9         6         1         1         5         5      0.00000000
         9         6         1         1         5         6     -0.00796257
         9         6         1         1         6         1     -0.00000000
         9         6         1         1         6         2     -0.00000000
         9         6         1         1         6         3     -0.00000000
         9         6         1         1         6         4     -0.00116367
         9         6         1         1         6         5     -0.00662078
         9         6         1         1         6         6      0.00000000
         9         7         1         1         1         1      0.00000000
         9         7         1         1         1         2      0.00000000
         9         7         1         1         1         3      0.00000000
         9         7         1         1         1         4     -0.00036525
         9         7         1         1         1         5     -0.00207812
         9         7         1         1         1         6     -0.00000000
         9         7         1         1         2         1      0.00000000
         9         7         1         1         2         2     -0.00000000
         9         7         1         1         2         3      0.00000000
         9         7         1         1         2         4      0.00017976
         9         7         1         1         2         5      0.00102274
         9         7         1         1         2         6      0.00000000
         9         7         1         1         3         1      0.00000000
         9         7         1         1         3         2      0.00000000
         9         7         1         1         3         3     -0.00000000
         9         7         1         1         3         4     -0.00158355
         9         7         1         1         3         5     -0.00900972
         9         7         1         1         3         6     -0.00000000
         9         7         1         1         4         1      0.00006340
         9         7         1         1         4         2     -0.00059173
         9         7         1         1         4         3     -0.00418352
         9         7         1         1         4         4      0.00000000
         9         7         1         1         4         5     -0.00000000
         9         7         1         1         4         6      0.00046785
         9         7         1         1         5         1      0.00036072
         9         7         1         1         5         2     -0.00336671
         9         7         1         1         5         3     -0.02380251
         9         7         1         1         5         4     -0.00000000
         9         7         1         1         5         5      0.00000000
         9         7         1         1         5         6      0.00266188
         9         7         1         1         6         1     -0.00000000
         9         7         1         1         6         2      0.00000000
         9         7         1         1         6         3     -0.00000000
         9         7         1         1         6         4     -0.00008538
         9         7         1         1         6         5     -0.00048576
         9         7         1         1         6         6      0.00000000
         9         8         1         1         1         1     -0.00000000
         9         8         1         1         1         2      0.00000000
         9         8         1         1         1         3     -0.00000000
         9         8         1         1         1         4      0.00000000
         9         8         1         1         1         5     -0.00000000
         9         8         1         1         1         6     -0.00000000
         9         8         1         1         2         1     -0.00000000
         9         8         1         1         2         2     -0.00000000
         9         8         1         1         2         3      0.00000000
         9         8         1         1         2         4     -0.00000000
         9         8         1         1         2         5      0.00000000
         9         8         1         1         2         6     -0.00000000
         9         8         1         1         3         1      0.00000000
         9         8         1         1         3         2      0.00000000
         9         8         1         1         3         3     -0.00000000
         9         8         1         1         3         4     -0.00000000
         9         8         1         1         3         5     -0.00000000
         9         8         1         1         3         6      0.00000000
         9         8         1         1         4         1      0.00000000
         9         8         1         1         4         2     -0.00000000
         9         8         1         1         4         3      0.00000000
         9         8         1         1         4         4     -0.00624323
         9         8         1         1         4         5     -0.00679175
         9         8         1         1         4         6      0.00000000
         9         8         1         1         5         1      0.00000000
         9         8         1         1         5         2      0.00000000
         9         8         1         1         5         3     -0.00000000
         9         8         1         1         5         4     -0.02763236
         9         8         1         1         5         5      0.00624323
         9         8         1         1         5         6      0.00000000
         9         8         1         1         6         1      0.00000000
         9         8         1         1         6         2     -0.00000000
         9         8         1         1         6         3      0.00000000
         9         8         1         1         6         4     -0.00000000
         9         8         1         1         6         5     -0.00000000
         9         8         1         1         6         6      0.00000000
         9         9         1         1         1         1     -0.00908389
         9         9         1         1         1         2     -0.00396317
         9         9         1         1         1         3     -0.00068930
         9         9         1         1         1         4     -0.00000000
         9         9         1         1         1         5      0.00000000
         9         9         1         1         1         6     -0.00608678
         9         9         1         1         2         1     -0.00396317
         9         9         1         1         2         2     -0.01253420
         9         9         1         1         2         3      0.00716447
         9         9         1         1         2         4      0.00000000
         9         9         1         1         2         5     -0.00000000
         9         9         1         1         2         6     -0.00087574
         9         9         1         1         3         1     -0.00068930
         9         9         1         1         3         2      0.00716447
         9         9         1         1         3         3     -0.01071485
         9         9         1         1         3         4     -0.00000000
         9         9         1         1         3         5      0.00000000
         9         9         1         1         3         6     -0.00125154
         9         9         1         1         4         1     -0.00000000
         9         9         1         1         4         2      0.00000000
         9         9         1         1         4         3     -0.00000000
         9         9         1         1         4         4     -0.00491732
         9         9         1         1         4         5     -0.00624323
         9         9         1         1         4         6      0.00000000
         9         9         1         1         5         1      0.00000000
         9         9         1         1         5         2     -0.00000000
         9         9         1         1         5         3      0.00000000
         9         9         1         1         5         4     -0.00624323
         9         9         1         1         5         5     -0.03934143
         9         9         1         1         5         6      0.00000000
         9         9         1         1         6         1     -0.00608678
         9         9         1         1         6         2     -0.00087574
         9         9         1         1         6         3     -0.00125154
         9         9         1         1         6         4      0.00000000
         9         9         1         1         6         5      0.00000000
         9         9         1         1         6         6     -0.00573503


 RESULTS
 =======

  Reference energy                   -459.607908270009

  Correlated core orbitals:             1.1       2.1       3.1       4.1       5.1
  Orbital energies:                  -104.8410  -10.6098   -8.0875   -8.0661   -8.0661

  BCCD core-core energy                -0.001573508237
  BCCD core-valence energy             -0.000736668839
  BCCD valence correlation energy      -0.044665981556

  BCCD singlet pair energy             -0.035933697654
  BCCD triplet pair energy             -0.011042460979
  BCCD correlation energy              -0.046976158633

 !BCCD total energy                  -459.654884428642

 Approximate expectation values using Brueckner orbitals

 !BCCD(ref) STATE  1.1 Dipole momen    -0.00000000     0.00000000    -0.63959973
 Dipole moment /Debye                  -0.00000000     0.00000000    -1.62559387

 Brueckner orbitals saved on record           2150.2 (orbital set 1)
 Brueckner density (ref) saved on record      2150.2 (density set 1)

 Brueckner orbitals
 ==================

   Orb     Occ           Coefficients

                         1 1s      1 1s      2 1s      2 1s      2 1s      2 1s      2 2px     2 2py     2 2pz     2 2px  
                         2 2py     2 2pz     2 2px     2 2py     2 2pz  

   1.1    2.0000000    0.000779 -0.001959  0.996516  0.012650 -0.004174  0.003470  0.000000  0.000000 -0.000179 -0.000000
                      -0.000000  0.000495  0.000000  0.000000 -0.000937

   2.1    2.0000000    0.000750  0.003317 -0.286668  1.030302  0.024344 -0.009851 -0.000000  0.000000 -0.021915 -0.000000
                       0.000000 -0.003048  0.000000 -0.000000  0.002878

   3.1    2.0000000   -0.004330  0.000778 -0.006784  0.024957 -0.002329  0.001280  0.000000 -0.000000  0.991855  0.000000
                      -0.000000  0.023601 -0.000000  0.000000 -0.006694

   4.1    2.0000000   -0.000000  0.000000  0.000000 -0.000000 -0.000000 -0.000000 -0.070725 -0.990659 -0.000000 -0.001544
                      -0.021626 -0.000000  0.000389  0.005455  0.000000

   5.1    2.0000000    0.000000 -0.000000  0.000000 -0.000000 -0.000000  0.000000  0.990659 -0.070725 -0.000000  0.021626
                      -0.001544 -0.000000 -0.005455  0.000389  0.000000

   6.1    2.0000000    0.346893  0.014581  0.073064 -0.342520  0.603886  0.176728 -0.000000 -0.000000  0.113996  0.000000
                      -0.000000 -0.198131 -0.000000  0.000000  0.004422

   7.1    2.0000000   -0.343800 -0.299373  0.036602 -0.163333  0.373845  0.544073 -0.000000  0.000000 -0.244040  0.000000
                      -0.000000  0.540750 -0.000000  0.000000  0.057272

   8.1    2.0000000    0.000000  0.000000 -0.000000  0.000000  0.000000 -0.000000  0.050233 -0.278491 -0.000000 -0.130587
                       0.723979  0.000000 -0.071315  0.395373  0.000000

   9.1    2.0000000    0.000000  0.000000 -0.000000  0.000000 -0.000000 -0.000000 -0.278491 -0.050233  0.000000  0.723979
                       0.130587  0.000000  0.395373  0.071315  0.000000

 Timing summary (sec):

 STEP                 CPU(USER)    SYS     CPU(TOT)    WALL
 Transformation          0.02      0.01      0.03      0.01
 CCSD iterations         0.18      0.04      0.22      0.24

 Program statistics:

 Available memory in ccsd:                39998876
 Min. memory needed in ccsd:                 14983
 Max. memory used in ccsd:                   14983
 Max. memory used in cckext:                 58394 (16 integral passes)



 **********************************************************************************************************************************
 DATASETS  * FILE   NREC   LENGTH (MB)   RECORD NAMES
              1      20       30.10       500      700      610      900      950      970     1000      129      960     1100   
                                          VAR     GEOM    BASINP   SYMINP    ZMAT    AOBASIS   BASIS     P2S    ABASIS      S 
                                         1400     1410     1200     1210     1080     1600     1650     1300     1700     1380   
                                           T        V       H0       H01     AOSYM     SMH    MOLCAS    ERIS     OPER     JKOP   

              2       4        2.75       700     1000      520     2150   
                                         GEOM     BASIS   MCVARS    BCCD   

              3       5       14.77       500      610      700     1000     2100   
                                          VAR    BASINP    GEOM     BASIS     RHF  

 PROGRAMS   *        TOTAL      BCCD       INT   RESTART
 CPU TIMES  *         0.62      0.28      0.14      0.02
 REAL TIME  *         0.80 SEC
 DISK USED  *        49.44 MB
 **********************************************************************************************************************************

 Dump information in style XML to orbitals.xml                                                                    

 Variables will not be exported.
 Molecular orbitals read from record     2150.2  Type=BCCD/BRUECKNER (state 1.1)
 Occupation numbers read from record     2150.2  Type=BCCD/BRUECKNER (state 1.1)

 No orbital energies found for orbital set 0

 No redundancy group numbers found for orbital set 0

 **********************************************************************************************************************************

 BCCD/6-31G energy=   -459.654884428642

            BCCD
   -459.65488443
 **********************************************************************************************************************************
 Molpro calculation terminated
