
 Primary working directories    : /scr/yuriaoto/job.023616/molpro.56YEc3KQAU
 Secondary working directories  : /scr/yuriaoto/job.023616/molpro.56YEc3KQAU
 Wavefunction directory         : /scr/yuriaoto/job.023616/
 Main file repository           : /scr/yuriaoto/job.023616/molpro.56YEc3KQAU/

 id        : yuriaoto

 Nodes             nprocs
 t-rex.ufabc.int.br    1

 Using customized tuning parameters: mindgm=8; mindgv=16; mindgc=1; mindgr=1; noblas=0; minvec=7
 default implementation of scratch files=df  


 Variables initialized (933), CPU time= 0.00 sec
 ***,
 memory,40,m
 gprint,orbital,basis,civector
 gthresh,thrprint=0,printci=0.0
 file,3,wfu.dat,old
 
 {ccsd,CC_NORM_MAX=10.0
 nosingle
 thresh,printci=0.0,ENERGY=1.0E-10,COEFF=1.0E-12
 print,ref=1
 core,0
 wf,18,1,0;
 }
 
 Commands  initialized (760), CPU time= 0.01 sec, 617 directives.
 Default parameters read. Elapsed time= 0.04 sec

 Checking input...
 Passed
1


                                         ***  PROGRAM SYSTEM MOLPRO  ***
                                       Copyright, TTI GmbH Stuttgart, 2015
                                    Version 2019.2 linked Abr  7 2019 15:10:35


 **********************************************************************************************************************************
 LABEL *                                                                                 
  64 bit serial version                                                                  DATE: 05-Jun-20          TIME: 21:39:23  
 **********************************************************************************************************************************

 SHA1:             3a8a58c585c929645742fb5a1b7541a4ad1da699
 **********************************************************************************************************************************


 THRESHOLDS:

 ZERO    =  1.00D-12  ONEINT  =  1.00D-12  TWOINT  =  1.00D-11  PREFAC  =  1.00D-14  XXXXXX  =  1.00D-09  EORDER  =  1.00D-04
 ENERGY  =  0.00D+00  ETEST   =  0.00D+00  EDENS   =  0.00D+00  THRDEDEF=  1.00D-06  GRADIENT=  1.00D-02  STEP    =  1.00D-03
 ORBITAL =  1.00D-05  CIVEC   =  1.00D-05  COEFF   =  1.00D-04  PRINTCI =  0.00D+00  PUNCHCI =  9.90D+01  OPTGRAD =  3.00D-04
 OPTENERG=  1.00D-06  OPTSTEP =  3.00D-04  THRGRAD =  1.00D-10  COMPRESS=  1.00D-11  VARMIN  =  1.00D-07  VARMAX  =  1.00D-03
 THRDOUB =  0.00D+00  THRDIV  =  1.00D-05  THRRED  =  1.00D-07  THRPSP  =  1.00D+00  THRDC   =  1.00D-10  THRCS   =  1.00D-10
 THRNRM  =  1.00D-08  THREQ   =  0.00D+00  THRDE   =  1.00D+00  THRREF  =  1.00D-05  SPARFAC =  1.00D+00  THRDLP  =  1.00D-07
 THRDIA  =  1.00D-10  THRDLS  =  1.00D-07  THRGPS  =  0.00D+00  THRKEX  =  0.00D+00  THRDIS  =  2.00D-01  THRVAR  =  1.00D-10
 THRLOC  =  1.00D-06  THRGAP  =  1.00D-06  THRLOCT = -1.00D+00  THRGAPT = -1.00D+00  THRORB  =  1.00D-06  THRMLTP =  0.00D+00
 THRCPQCI=  1.00D-10  KEXTA   =  0.00D+00  THRCOARS=  0.00D+00  SYMTOL  =  1.00D-06  GRADTOL =  1.00D-06  THROVL  =  1.00D-08
 THRORTH =  1.00D-08  GRID    =  1.00D-06  GRIDMAX =  1.00D-03  DTMAX   =  0.00D+00  THROCCDE=  1.00D-01  THROCCDE=  1.00D-01
 THRPRINT=  0.00D+00


 Variable memory set to   40000000 words,  buffer space 



 Permanent file  3  wfu.dat  assigned.  Implementation=df    Size= 14.09 MB


 PROGRAM * RESTART 


 Reading variables from file 3

 _FNUC           =      0.00000000
 _BASIS          =    6-31G
 _NELEC          =     18.00000000
 _PROGRAM        =    RHF-SCF
 _DMX            =     -0.00000000
 _DMY            =      0.00000000
 _DMZ            =     -0.64056631
 _DMX_SCF        =     -0.00000000
 _DMY_SCF        =      0.00000000
 _DMZ_SCF        =     -0.64056631
 _HOMO           =      9.10000000
 _EHOMO          =     -0.49295114
 _LUMO           =     10.10000000
 _ELUMO          =      0.32493986
 _ENERGY         =   -459.60831721
 _ENERGY_METHOD  =    RHF
 _ENERGY_BASIS   =    6-31G
 _ENUC           =     11.33333333
 _EPS1(1:15)     =   -104.81304708   -10.58851941    -8.06562950    -8.04437589    -8.04437589    -1.29348723
                       -0.68951886    -0.49295114    -0.49295114     0.32493986     0.41098157     0.59951917
                        0.61252576     0.61252576     1.47579847
 _IPROC_MPP      =      0.00000000
 _IPROC_MPPX     =      0.00000000
 _ORBITAL        =   2100.30000000
 _STATUS         =      1.00000000
 _DATE           =    31-May-20
 _LASTORB        =    RHF
 _OUTPUT         =    /scr/yuriaoto/job.023317/RHF.xml
 _PGROUP         =    C1  
 _TIME           =    01:23:49
 R               =      1.50000000

 Geometry written to block  1 of record 700


 **********************************************************************************************************************************
 DATASETS  * FILE   NREC   LENGTH (MB)   RECORD NAMES
              3       5       14.77       500      610      700     1000     2100   
                                          VAR    BASINP    GEOM     BASIS     RHF  

 PROGRAMS   *        TOTAL   RESTART
 CPU TIMES  *         0.09      0.01
 REAL TIME  *         0.11 SEC
 DISK USED  *        26.84 MB
 **********************************************************************************************************************************


 Recomputing integrals since basis changed


 Using spherical harmonics

 Library entry H      S 6-31G                selected for orbital group  1
 Library entry CL     S 6-31G                selected for orbital group  2
 Library entry CL     P 6-31G                selected for orbital group  2


 PROGRAM * SEWARD (Integral evaluation for generally contracted gaussian basis sets)     Author: Roland Lindh, 1990

 Geometry written to block  1 of record 700

 Orientation using atomic masses  
 Molecule type: Linear
 Rotational constants:     818.4131427    818.4131427      0.0000000 GHz  (calculated with average atomic masses)

 Point group  C1  



 ATOMIC COORDINATES

 NR  ATOM    CHARGE       X              Y              Z

   1  H       1.00    0.000000000    0.000000000   -1.458533433
   2  CL     17.00    0.000000000    0.000000000    0.041466567

 Bond lengths in Bohr (Angstrom)

 1-2  1.500000000
     ( 0.793765816)


 BASIS DATA

   Nr Sym  Nuc  Type         Exponents   Contraction coefficients

    1.1 A     1  1s          18.731137     0.033495
                              2.825394     0.234727
                              0.640122     0.813757
    2.1 A     1  1s           0.161278     1.000000
    3.1 A     2  1s       25180.100000     0.001833
                           3780.350000     0.014034
                            860.474000     0.069097
                            242.145000     0.237452
                             77.334900     0.483034
                             26.247000     0.339856
    4.1 A     2  1s         491.765000    -0.002297
                            116.984000    -0.030714
                             37.415300    -0.112528
                             13.783400     0.045016
                              5.452150     0.589353
                              2.225880     0.465206
    5.1 A     2  1s           3.186490    -0.251827
                              1.144270     0.061589
                              0.420377     1.060180
    6.1 A     2  1s           0.142657     1.000000
    7.1 A     2  2px        491.765000     0.003989
                            116.984000     0.030318
                             37.415300     0.129880
                             13.783400     0.327951
                              5.452150     0.453527
                              2.225880     0.252154
    8.1 A     2  2py        491.765000     0.003989
                            116.984000     0.030318
                             37.415300     0.129880
                             13.783400     0.327951
                              5.452150     0.453527
                              2.225880     0.252154
    9.1 A     2  2pz        491.765000     0.003989
                            116.984000     0.030318
                             37.415300     0.129880
                             13.783400     0.327951
                              5.452150     0.453527
                              2.225880     0.252154
   10.1 A     2  2px          3.186490    -0.014299
                              1.144270     0.323572
                              0.420377     0.743507
   11.1 A     2  2py          3.186490    -0.014299
                              1.144270     0.323572
                              0.420377     0.743507
   12.1 A     2  2pz          3.186490    -0.014299
                              1.144270     0.323572
                              0.420377     0.743507
   13.1 A     2  2px          0.142657     1.000000
   14.1 A     2  2py          0.142657     1.000000
   15.1 A     2  2pz          0.142657     1.000000

 NUCLEAR CHARGE:                   18
 NUMBER OF PRIMITIVE AOS:          50
 NUMBER OF SYMMETRY AOS:           50
 NUMBER OF CONTRACTIONS:           15   (   15A   )
 NUMBER OF CORE ORBITALS:           5   (    5A   )
 NUMBER OF VALENCE ORBITALS:        5   (    5A   )


 NUCLEAR REPULSION ENERGY   11.33333333

 EXTRA SYMMETRY OF AOS IN SYMMETRY 1:   1 1 1 1 1 1 2 3 1 2   3 1 2 3 1

 Eigenvalues of metric

         1 0.130E-01 0.193E+00 0.223E+00 0.323E+00 0.323E+00 0.485E+00 0.687E+00 0.942E+00


 Contracted 2-electron integrals neglected if value below      1.0D-11
 AO integral compression algorithm  1   Integral accuracy      1.0D-11

     0.262 MB (compressed) written to integral file ( 54.9%)


 NUMBER OF SORTED TWO-ELECTRON INTEGRALS:       7260.     BUFFER LENGTH:  32768
 NUMBER OF SEGMENTS:   1  SEGMENT LENGTH:       7260      RECORD LENGTH: 524288

 Memory used in sort:       0.56 MW

 SORT1 READ       16285. AND WROTE        1902. INTEGRALS IN      1 RECORDS. CPU TIME:     0.00 SEC, REAL TIME:     0.00 SEC
 SORT2 READ        1902. AND WROTE        7260. INTEGRALS IN      1 RECORDS. CPU TIME:     0.00 SEC, REAL TIME:     0.01 SEC

 FILE SIZES:   FILE 1:    30.2 MBYTE,  FILE 4:     4.2 MBYTE,   TOTAL:     34.4 MBYTE

 OPERATOR DM      FOR CENTER  0  COORDINATES:    0.000000    0.000000    0.000000


 **********************************************************************************************************************************
 DATASETS  * FILE   NREC   LENGTH (MB)   RECORD NAMES
              1      19       29.97       500      700      610      900      950      970     1000      129      960     1100   
                                          VAR     GEOM    BASINP   SYMINP    ZMAT    AOBASIS   BASIS     P2S    ABASIS      S 
                                         1400     1410     1200     1210     1080     1600     1650     1300     1700   
                                           T        V       H0       H01     AOSYM     SMH    MOLCAS    ERIS     OPER   

              3       5       14.77       500      610      700     1000     2100   
                                          VAR    BASINP    GEOM     BASIS     RHF  

 PROGRAMS   *        TOTAL       INT   RESTART
 CPU TIMES  *         0.20      0.11      0.01
 REAL TIME  *         0.32 SEC
 DISK USED  *        49.44 MB
 **********************************************************************************************************************************


 PROGRAM * CCSD (Closed-shell coupled cluster)     Authors: C. Hampel, H.-J. Werner, 1991, M. Deegan, P.J. Knowles, 1992


 Input parameters for THRESH:

 ENERGY   =    1.00D-10
 COEFF    =    1.00D-12
 PRINTCI  =    0.000000
 THRPRINT =    0.000000

 Convergence thresholds:  THRVAR = 1.00D-24  THRDEN = 1.00D-10

 Number of closed-shell orbitals:   9 (   9 )
 Number of external orbitals:       6 (   6 )

 Molecular orbitals read from record     2100.3  Type=RHF/CANONICAL (state 1.1)

 Number of N-1 electron functions:               0
 Number of N-2 electron functions:              45
 Number of singly external CSFs:                 0
 Number of doubly external CSFs:              1485
 Total number of CSFs:                        1486

 Length of J-op  integral file:               0.00 MB
 Length of K-op  integral file:               0.05 MB
 Length of 3-ext integral record:             0.00 MB

 Integral transformation finished. Total CPU:   0.00 sec, npass=  1  Memory used:   0.10 MW

 Reference energy:                   -459.60831721

 MP2 singlet pair energy:              -0.02869034
 MP2 triplet pair energy:              -0.01086841
 MP2 correlation energy:               -0.03955875
 MP2 total energy:                   -459.64787597

 SCS-MP2 correlation energy:           -0.04119098   (PS=  1.200000  PT=  0.333333)
 SCS-MP2 total energy:               -459.64950819

 ITER.      SQ.NORM     CORR.ENERGY   TOTAL ENERGY   ENERGY CHANGE        DEN1      VAR(S)    VAR(P)  DIIS     TIME  TIME/IT
   1      1.01777488    -0.04594419  -459.65426140    -0.00638544    -0.00498534  0.00D+00  0.33D-03  1  1     0.02     0.01
   2      1.01935210    -0.04636768  -459.65468489    -0.00042349    -0.00174905  0.00D+00  0.66D-05  2  2     0.02     0.00
   3      1.01945679    -0.04637329  -459.65469050    -0.00000561    -0.00007573  0.00D+00  0.46D-06  3  3     0.02     0.00
   4      1.01947337    -0.04637370  -459.65469091    -0.00000041    -0.00000332  0.00D+00  0.77D-08  4  4     0.03     0.00
   5      1.01947555    -0.04637384  -459.65469106    -0.00000015    -0.00000157  0.00D+00  0.14D-09  5  5     0.03     0.00
   6      1.01947568    -0.04637383  -459.65469105     0.00000001    -0.00000010  0.00D+00  0.94D-11  6  6     0.04     0.00
   7      1.01947566    -0.04637383  -459.65469105     0.00000000     0.00000003  0.00D+00  0.16D-12  6  1     0.04     0.00
   8      1.01947565    -0.04637383  -459.65469104     0.00000000     0.00000000  0.00D+00  0.70D-14  6  2     0.04     0.00
   9      1.01947565    -0.04637383  -459.65469104    -0.00000000     0.00000000  0.00D+00  0.20D-15  6  3     0.05     0.00
  10      1.01947565    -0.04637383  -459.65469104    -0.00000000     0.00000000  0.00D+00  0.61D-17  6  4     0.05     0.00
  11      1.01947565    -0.04637383  -459.65469104     0.00000000     0.00000000  0.00D+00  0.16D-18  6  5     0.06     0.00
  12      1.01947565    -0.04637383  -459.65469104     0.00000000     0.00000000  0.00D+00  0.71D-20  6  6     0.06     0.00
  13      1.01947565    -0.04637383  -459.65469104     0.00000000    -0.00000000  0.00D+00  0.23D-21  6  1     0.06     0.00
  14      1.01947565    -0.04637383  -459.65469104     0.00000000    -0.00000000  0.00D+00  0.11D-22  6  2     0.07     0.00
  15      1.01947565    -0.04637383  -459.65469104     0.00000000    -0.00000000  0.00D+00  0.42D-24  6  3     0.07     0.00


 Doubles amplitudes (print threshold =  0.000E+00):

         I         J         SYM. A    SYM. B    A         B      T(IJ, AB)

         1         1         1         1         1         1     -0.00000748
         1         1         1         1         1         2      0.00001284
         1         1         1         1         1         3     -0.00000677
         1         1         1         1         1         4      0.00000000
         1         1         1         1         1         5     -0.00000000
         1         1         1         1         1         6     -0.00001911
         1         1         1         1         2         1      0.00001284
         1         1         1         1         2         2     -0.00001360
         1         1         1         1         2         3      0.00000800
         1         1         1         1         2         4     -0.00000000
         1         1         1         1         2         5      0.00000000
         1         1         1         1         2         6      0.00002702
         1         1         1         1         3         1     -0.00000677
         1         1         1         1         3         2      0.00000800
         1         1         1         1         3         3     -0.00004777
         1         1         1         1         3         4      0.00000000
         1         1         1         1         3         5     -0.00000000
         1         1         1         1         3         6      0.00000216
         1         1         1         1         4         1      0.00000000
         1         1         1         1         4         2     -0.00000000
         1         1         1         1         4         3      0.00000000
         1         1         1         1         4         4     -0.00004248
         1         1         1         1         4         5     -0.00000000
         1         1         1         1         4         6     -0.00000000
         1         1         1         1         5         1     -0.00000000
         1         1         1         1         5         2      0.00000000
         1         1         1         1         5         3     -0.00000000
         1         1         1         1         5         4     -0.00000000
         1         1         1         1         5         5     -0.00004248
         1         1         1         1         5         6      0.00000000
         1         1         1         1         6         1     -0.00001911
         1         1         1         1         6         2      0.00002702
         1         1         1         1         6         3      0.00000216
         1         1         1         1         6         4     -0.00000000
         1         1         1         1         6         5      0.00000000
         1         1         1         1         6         6     -0.00004843
         2         1         1         1         1         1      0.00000243
         2         1         1         1         1         2     -0.00000125
         2         1         1         1         1         3      0.00001502
         2         1         1         1         1         4     -0.00000000
         2         1         1         1         1         5     -0.00000000
         2         1         1         1         1         6     -0.00000178
         2         1         1         1         2         1     -0.00000129
         2         1         1         1         2         2      0.00000340
         2         1         1         1         2         3     -0.00001950
         2         1         1         1         2         4     -0.00000000
         2         1         1         1         2         5      0.00000000
         2         1         1         1         2         6      0.00000352
         2         1         1         1         3         1      0.00001425
         2         1         1         1         3         2     -0.00001856
         2         1         1         1         3         3      0.00000476
         2         1         1         1         3         4      0.00000000
         2         1         1         1         3         5     -0.00000000
         2         1         1         1         3         6      0.00003262
         2         1         1         1         4         1     -0.00000000
         2         1         1         1         4         2     -0.00000000
         2         1         1         1         4         3      0.00000000
         2         1         1         1         4         4     -0.00003454
         2         1         1         1         4         5     -0.00000000
         2         1         1         1         4         6     -0.00000000
         2         1         1         1         5         1     -0.00000000
         2         1         1         1         5         2      0.00000000
         2         1         1         1         5         3     -0.00000000
         2         1         1         1         5         4     -0.00000000
         2         1         1         1         5         5     -0.00003454
         2         1         1         1         5         6      0.00000000
         2         1         1         1         6         1     -0.00000060
         2         1         1         1         6         2      0.00000213
         2         1         1         1         6         3      0.00003285
         2         1         1         1         6         4     -0.00000000
         2         1         1         1         6         5      0.00000000
         2         1         1         1         6         6     -0.00001454
         2         2         1         1         1         1     -0.00013003
         2         2         1         1         1         2      0.00019279
         2         2         1         1         1         3     -0.00018802
         2         2         1         1         1         4      0.00000000
         2         2         1         1         1         5     -0.00000000
         2         2         1         1         1         6     -0.00025492
         2         2         1         1         2         1      0.00019279
         2         2         1         1         2         2     -0.00021748
         2         2         1         1         2         3      0.00022679
         2         2         1         1         2         4     -0.00000000
         2         2         1         1         2         5      0.00000000
         2         2         1         1         2         6      0.00032788
         2         2         1         1         3         1     -0.00018802
         2         2         1         1         3         2      0.00022679
         2         2         1         1         3         3     -0.00062164
         2         2         1         1         3         4      0.00000000
         2         2         1         1         3         5     -0.00000000
         2         2         1         1         3         6     -0.00018752
         2         2         1         1         4         1      0.00000000
         2         2         1         1         4         2     -0.00000000
         2         2         1         1         4         3      0.00000000
         2         2         1         1         4         4     -0.00033355
         2         2         1         1         4         5     -0.00000000
         2         2         1         1         4         6      0.00000000
         2         2         1         1         5         1     -0.00000000
         2         2         1         1         5         2      0.00000000
         2         2         1         1         5         3     -0.00000000
         2         2         1         1         5         4     -0.00000000
         2         2         1         1         5         5     -0.00033355
         2         2         1         1         5         6     -0.00000000
         2         2         1         1         6         1     -0.00025492
         2         2         1         1         6         2      0.00032788
         2         2         1         1         6         3     -0.00018752
         2         2         1         1         6         4      0.00000000
         2         2         1         1         6         5     -0.00000000
         2         2         1         1         6         6     -0.00051415
         3         1         1         1         1         1      0.00000194
         3         1         1         1         1         2     -0.00000219
         3         1         1         1         1         3     -0.00001610
         3         1         1         1         1         4      0.00000000
         3         1         1         1         1         5     -0.00000000
         3         1         1         1         1         6      0.00001052
         3         1         1         1         2         1     -0.00000112
         3         1         1         1         2         2      0.00000144
         3         1         1         1         2         3      0.00001759
         3         1         1         1         2         4      0.00000000
         3         1         1         1         2         5     -0.00000000
         3         1         1         1         2         6     -0.00000963
         3         1         1         1         3         1      0.00001534
         3         1         1         1         3         2     -0.00001951
         3         1         1         1         3         3     -0.00000655
         3         1         1         1         3         4     -0.00000000
         3         1         1         1         3         5      0.00000000
         3         1         1         1         3         6      0.00003861
         3         1         1         1         4         1      0.00000000
         3         1         1         1         4         2     -0.00000000
         3         1         1         1         4         3      0.00000000
         3         1         1         1         4         4     -0.00000081
         3         1         1         1         4         5     -0.00000000
         3         1         1         1         4         6     -0.00000000
         3         1         1         1         5         1     -0.00000000
         3         1         1         1         5         2      0.00000000
         3         1         1         1         5         3     -0.00000000
         3         1         1         1         5         4     -0.00000000
         3         1         1         1         5         5     -0.00000081
         3         1         1         1         5         6      0.00000000
         3         1         1         1         6         1     -0.00000148
         3         1         1         1         6         2      0.00000189
         3         1         1         1         6         3     -0.00003635
         3         1         1         1         6         4     -0.00000000
         3         1         1         1         6         5      0.00000000
         3         1         1         1         6         6      0.00001045
         3         2         1         1         1         1      0.00017254
         3         2         1         1         1         2     -0.00020279
         3         2         1         1         1         3      0.00017598
         3         2         1         1         1         4     -0.00000000
         3         2         1         1         1         5      0.00000000
         3         2         1         1         1         6      0.00028488
         3         2         1         1         2         1     -0.00020505
         3         2         1         1         2         2      0.00026347
         3         2         1         1         2         3     -0.00019191
         3         2         1         1         2         4     -0.00000000
         3         2         1         1         2         5      0.00000000
         3         2         1         1         2         6     -0.00039234
         3         2         1         1         3         1     -0.00021267
         3         2         1         1         3         2      0.00027726
         3         2         1         1         3         3     -0.00081605
         3         2         1         1         3         4      0.00000000
         3         2         1         1         3         5      0.00000000
         3         2         1         1         3         6     -0.00018157
         3         2         1         1         4         1     -0.00000000
         3         2         1         1         4         2     -0.00000000
         3         2         1         1         4         3     -0.00000000
         3         2         1         1         4         4      0.00000210
         3         2         1         1         4         5     -0.00000000
         3         2         1         1         4         6      0.00000000
         3         2         1         1         5         1      0.00000000
         3         2         1         1         5         2      0.00000000
         3         2         1         1         5         3      0.00000000
         3         2         1         1         5         4     -0.00000000
         3         2         1         1         5         5      0.00000210
         3         2         1         1         5         6     -0.00000000
         3         2         1         1         6         1      0.00041991
         3         2         1         1         6         2     -0.00054166
         3         2         1         1         6         3      0.00065254
         3         2         1         1         6         4      0.00000000
         3         2         1         1         6         5     -0.00000000
         3         2         1         1         6         6      0.00066126
         3         3         1         1         1         1     -0.00015468
         3         3         1         1         1         2      0.00028254
         3         3         1         1         1         3      0.00027096
         3         3         1         1         1         4     -0.00000000
         3         3         1         1         1         5      0.00000000
         3         3         1         1         1         6     -0.00052084
         3         3         1         1         2         1      0.00028254
         3         3         1         1         2         2     -0.00032587
         3         3         1         1         2         3     -0.00031363
         3         3         1         1         2         4      0.00000000
         3         3         1         1         2         5     -0.00000000
         3         3         1         1         2         6      0.00069119
         3         3         1         1         3         1      0.00027096
         3         3         1         1         3         2     -0.00031363
         3         3         1         1         3         3     -0.00121179
         3         3         1         1         3         4     -0.00000000
         3         3         1         1         3         5      0.00000000
         3         3         1         1         3         6      0.00099048
         3         3         1         1         4         1     -0.00000000
         3         3         1         1         4         2      0.00000000
         3         3         1         1         4         3     -0.00000000
         3         3         1         1         4         4     -0.00019828
         3         3         1         1         4         5     -0.00000000
         3         3         1         1         4         6     -0.00000000
         3         3         1         1         5         1      0.00000000
         3         3         1         1         5         2     -0.00000000
         3         3         1         1         5         3      0.00000000
         3         3         1         1         5         4     -0.00000000
         3         3         1         1         5         5     -0.00019828
         3         3         1         1         5         6      0.00000000
         3         3         1         1         6         1     -0.00052084
         3         3         1         1         6         2      0.00069119
         3         3         1         1         6         3      0.00099048
         3         3         1         1         6         4     -0.00000000
         3         3         1         1         6         5      0.00000000
         3         3         1         1         6         6     -0.00149846
         4         1         1         1         1         1     -0.00000000
         4         1         1         1         1         2     -0.00000000
         4         1         1         1         1         3     -0.00000000
         4         1         1         1         1         4      0.00001413
         4         1         1         1         1         5      0.00000107
         4         1         1         1         1         6      0.00000000
         4         1         1         1         2         1     -0.00000000
         4         1         1         1         2         2      0.00000000
         4         1         1         1         2         3     -0.00000000
         4         1         1         1         2         4     -0.00001958
         4         1         1         1         2         5     -0.00000149
         4         1         1         1         2         6      0.00000000
         4         1         1         1         3         1      0.00000000
         4         1         1         1         3         2     -0.00000000
         4         1         1         1         3         3      0.00000000
         4         1         1         1         3         4      0.00003212
         4         1         1         1         3         5      0.00000244
         4         1         1         1         3         6      0.00000000
         4         1         1         1         4         1     -0.00001028
         4         1         1         1         4         2      0.00001251
         4         1         1         1         4         3     -0.00002167
         4         1         1         1         4         4     -0.00000000
         4         1         1         1         4         5      0.00000000
         4         1         1         1         4         6     -0.00001560
         4         1         1         1         5         1     -0.00000078
         4         1         1         1         5         2      0.00000095
         4         1         1         1         5         3     -0.00000164
         4         1         1         1         5         4      0.00000000
         4         1         1         1         5         5     -0.00000000
         4         1         1         1         5         6     -0.00000118
         4         1         1         1         6         1     -0.00000000
         4         1         1         1         6         2     -0.00000000
         4         1         1         1         6         3      0.00000000
         4         1         1         1         6         4      0.00002012
         4         1         1         1         6         5      0.00000153
         4         1         1         1         6         6      0.00000000
         4         2         1         1         1         1     -0.00000000
         4         2         1         1         1         2      0.00000000
         4         2         1         1         1         3     -0.00000000
         4         2         1         1         1         4      0.00015063
         4         2         1         1         1         5      0.00001143
         4         2         1         1         1         6     -0.00000000
         4         2         1         1         2         1      0.00000000
         4         2         1         1         2         2     -0.00000000
         4         2         1         1         2         3      0.00000000
         4         2         1         1         2         4     -0.00017125
         4         2         1         1         2         5     -0.00001300
         4         2         1         1         2         6     -0.00000000
         4         2         1         1         3         1     -0.00000000
         4         2         1         1         3         2      0.00000000
         4         2         1         1         3         3     -0.00000000
         4         2         1         1         3         4      0.00029925
         4         2         1         1         3         5      0.00002271
         4         2         1         1         3         6     -0.00000000
         4         2         1         1         4         1      0.00046792
         4         2         1         1         4         2     -0.00056803
         4         2         1         1         4         3      0.00093448
         4         2         1         1         4         4      0.00000000
         4         2         1         1         4         5     -0.00000000
         4         2         1         1         4         6      0.00070087
         4         2         1         1         5         1      0.00003551
         4         2         1         1         5         2     -0.00004311
         4         2         1         1         5         3      0.00007092
         4         2         1         1         5         4     -0.00000000
         4         2         1         1         5         5      0.00000000
         4         2         1         1         5         6      0.00005319
         4         2         1         1         6         1     -0.00000000
         4         2         1         1         6         2      0.00000000
         4         2         1         1         6         3     -0.00000000
         4         2         1         1         6         4      0.00024147
         4         2         1         1         6         5      0.00001833
         4         2         1         1         6         6     -0.00000000
         4         3         1         1         1         1      0.00000000
         4         3         1         1         1         2      0.00000000
         4         3         1         1         1         3      0.00000000
         4         3         1         1         1         4     -0.00006286
         4         3         1         1         1         5     -0.00000477
         4         3         1         1         1         6      0.00000000
         4         3         1         1         2         1      0.00000000
         4         3         1         1         2         2     -0.00000000
         4         3         1         1         2         3     -0.00000000
         4         3         1         1         2         4      0.00007289
         4         3         1         1         2         5      0.00000553
         4         3         1         1         2         6      0.00000000
         4         3         1         1         3         1      0.00000000
         4         3         1         1         3         2      0.00000000
         4         3         1         1         3         3      0.00000000
         4         3         1         1         3         4      0.00014839
         4         3         1         1         3         5      0.00001126
         4         3         1         1         3         6      0.00000000
         4         3         1         1         4         1     -0.00047445
         4         3         1         1         4         2      0.00057114
         4         3         1         1         4         3      0.00113614
         4         3         1         1         4         4     -0.00000000
         4         3         1         1         4         5     -0.00000000
         4         3         1         1         4         6     -0.00140547
         4         3         1         1         5         1     -0.00003601
         4         3         1         1         5         2      0.00004334
         4         3         1         1         5         3      0.00008622
         4         3         1         1         5         4      0.00000000
         4         3         1         1         5         5     -0.00000000
         4         3         1         1         5         6     -0.00010666
         4         3         1         1         6         1     -0.00000000
         4         3         1         1         6         2      0.00000000
         4         3         1         1         6         3     -0.00000000
         4         3         1         1         6         4     -0.00019813
         4         3         1         1         6         5     -0.00001504
         4         3         1         1         6         6      0.00000000
         4         4         1         1         1         1     -0.00005336
         4         4         1         1         1         2      0.00010804
         4         4         1         1         1         3     -0.00009704
         4         4         1         1         1         4     -0.00000000
         4         4         1         1         1         5      0.00000000
         4         4         1         1         1         6     -0.00013719
         4         4         1         1         2         1      0.00010804
         4         4         1         1         2         2     -0.00007532
         4         4         1         1         2         3      0.00009278
         4         4         1         1         2         4      0.00000000
         4         4         1         1         2         5     -0.00000000
         4         4         1         1         2         6      0.00017355
         4         4         1         1         3         1     -0.00009704
         4         4         1         1         3         2      0.00009278
         4         4         1         1         3         3     -0.00033112
         4         4         1         1         3         4     -0.00000000
         4         4         1         1         3         5      0.00000000
         4         4         1         1         3         6     -0.00007950
         4         4         1         1         4         1     -0.00000000
         4         4         1         1         4         2      0.00000000
         4         4         1         1         4         3     -0.00000000
         4         4         1         1         4         4     -0.00212707
         4         4         1         1         4         5     -0.00014662
         4         4         1         1         4         6     -0.00000000
         4         4         1         1         5         1      0.00000000
         4         4         1         1         5         2     -0.00000000
         4         4         1         1         5         3      0.00000000
         4         4         1         1         5         4     -0.00014662
         4         4         1         1         5         5     -0.00020620
         4         4         1         1         5         6      0.00000000
         4         4         1         1         6         1     -0.00013719
         4         4         1         1         6         2      0.00017355
         4         4         1         1         6         3     -0.00007950
         4         4         1         1         6         4     -0.00000000
         4         4         1         1         6         5      0.00000000
         4         4         1         1         6         6     -0.00030528
         5         1         1         1         1         1     -0.00000000
         5         1         1         1         1         2     -0.00000000
         5         1         1         1         1         3     -0.00000000
         5         1         1         1         1         4      0.00000107
         5         1         1         1         1         5     -0.00001413
         5         1         1         1         1         6      0.00000000
         5         1         1         1         2         1     -0.00000000
         5         1         1         1         2         2      0.00000000
         5         1         1         1         2         3     -0.00000000
         5         1         1         1         2         4     -0.00000149
         5         1         1         1         2         5      0.00001958
         5         1         1         1         2         6      0.00000000
         5         1         1         1         3         1     -0.00000000
         5         1         1         1         3         2     -0.00000000
         5         1         1         1         3         3      0.00000000
         5         1         1         1         3         4      0.00000244
         5         1         1         1         3         5     -0.00003212
         5         1         1         1         3         6      0.00000000
         5         1         1         1         4         1     -0.00000078
         5         1         1         1         4         2      0.00000095
         5         1         1         1         4         3     -0.00000164
         5         1         1         1         4         4     -0.00000000
         5         1         1         1         4         5      0.00000000
         5         1         1         1         4         6     -0.00000118
         5         1         1         1         5         1      0.00001028
         5         1         1         1         5         2     -0.00001251
         5         1         1         1         5         3      0.00002167
         5         1         1         1         5         4      0.00000000
         5         1         1         1         5         5     -0.00000000
         5         1         1         1         5         6      0.00001560
         5         1         1         1         6         1      0.00000000
         5         1         1         1         6         2     -0.00000000
         5         1         1         1         6         3      0.00000000
         5         1         1         1         6         4      0.00000153
         5         1         1         1         6         5     -0.00002012
         5         1         1         1         6         6     -0.00000000
         5         2         1         1         1         1     -0.00000000
         5         2         1         1         1         2      0.00000000
         5         2         1         1         1         3     -0.00000000
         5         2         1         1         1         4      0.00001143
         5         2         1         1         1         5     -0.00015063
         5         2         1         1         1         6     -0.00000000
         5         2         1         1         2         1      0.00000000
         5         2         1         1         2         2     -0.00000000
         5         2         1         1         2         3      0.00000000
         5         2         1         1         2         4     -0.00001300
         5         2         1         1         2         5      0.00017125
         5         2         1         1         2         6     -0.00000000
         5         2         1         1         3         1     -0.00000000
         5         2         1         1         3         2      0.00000000
         5         2         1         1         3         3     -0.00000000
         5         2         1         1         3         4      0.00002271
         5         2         1         1         3         5     -0.00029925
         5         2         1         1         3         6     -0.00000000
         5         2         1         1         4         1      0.00003551
         5         2         1         1         4         2     -0.00004311
         5         2         1         1         4         3      0.00007092
         5         2         1         1         4         4      0.00000000
         5         2         1         1         4         5     -0.00000000
         5         2         1         1         4         6      0.00005319
         5         2         1         1         5         1     -0.00046792
         5         2         1         1         5         2      0.00056803
         5         2         1         1         5         3     -0.00093448
         5         2         1         1         5         4     -0.00000000
         5         2         1         1         5         5      0.00000000
         5         2         1         1         5         6     -0.00070087
         5         2         1         1         6         1     -0.00000000
         5         2         1         1         6         2      0.00000000
         5         2         1         1         6         3     -0.00000000
         5         2         1         1         6         4      0.00001833
         5         2         1         1         6         5     -0.00024147
         5         2         1         1         6         6     -0.00000000
         5         3         1         1         1         1      0.00000000
         5         3         1         1         1         2      0.00000000
         5         3         1         1         1         3      0.00000000
         5         3         1         1         1         4     -0.00000477
         5         3         1         1         1         5      0.00006286
         5         3         1         1         1         6      0.00000000
         5         3         1         1         2         1      0.00000000
         5         3         1         1         2         2     -0.00000000
         5         3         1         1         2         3     -0.00000000
         5         3         1         1         2         4      0.00000553
         5         3         1         1         2         5     -0.00007289
         5         3         1         1         2         6      0.00000000
         5         3         1         1         3         1      0.00000000
         5         3         1         1         3         2      0.00000000
         5         3         1         1         3         3      0.00000000
         5         3         1         1         3         4      0.00001126
         5         3         1         1         3         5     -0.00014839
         5         3         1         1         3         6     -0.00000000
         5         3         1         1         4         1     -0.00003601
         5         3         1         1         4         2      0.00004334
         5         3         1         1         4         3      0.00008622
         5         3         1         1         4         4     -0.00000000
         5         3         1         1         4         5      0.00000000
         5         3         1         1         4         6     -0.00010666
         5         3         1         1         5         1      0.00047445
         5         3         1         1         5         2     -0.00057114
         5         3         1         1         5         3     -0.00113614
         5         3         1         1         5         4     -0.00000000
         5         3         1         1         5         5     -0.00000000
         5         3         1         1         5         6      0.00140547
         5         3         1         1         6         1     -0.00000000
         5         3         1         1         6         2      0.00000000
         5         3         1         1         6         3     -0.00000000
         5         3         1         1         6         4     -0.00001504
         5         3         1         1         6         5      0.00019813
         5         3         1         1         6         6      0.00000000
         5         4         1         1         1         1      0.00000000
         5         4         1         1         1         2      0.00000000
         5         4         1         1         1         3     -0.00000000
         5         4         1         1         1         4     -0.00000000
         5         4         1         1         1         5      0.00000000
         5         4         1         1         1         6     -0.00000000
         5         4         1         1         2         1      0.00000000
         5         4         1         1         2         2      0.00000000
         5         4         1         1         2         3     -0.00000000
         5         4         1         1         2         4      0.00000000
         5         4         1         1         2         5     -0.00000000
         5         4         1         1         2         6     -0.00000000
         5         4         1         1         3         1     -0.00000000
         5         4         1         1         3         2     -0.00000000
         5         4         1         1         3         3      0.00000000
         5         4         1         1         3         4     -0.00000000
         5         4         1         1         3         5      0.00000000
         5         4         1         1         3         6     -0.00000000
         5         4         1         1         4         1     -0.00000000
         5         4         1         1         4         2      0.00000000
         5         4         1         1         4         3     -0.00000000
         5         4         1         1         4         4     -0.00014662
         5         4         1         1         4         5      0.00021101
         5         4         1         1         4         6     -0.00000000
         5         4         1         1         5         1     -0.00000000
         5         4         1         1         5         2     -0.00000000
         5         4         1         1         5         3      0.00000000
         5         4         1         1         5         4      0.00170986
         5         4         1         1         5         5      0.00014662
         5         4         1         1         5         6     -0.00000000
         5         4         1         1         6         1     -0.00000000
         5         4         1         1         6         2     -0.00000000
         5         4         1         1         6         3     -0.00000000
         5         4         1         1         6         4      0.00000000
         5         4         1         1         6         5      0.00000000
         5         4         1         1         6         6     -0.00000000
         5         5         1         1         1         1     -0.00005336
         5         5         1         1         1         2      0.00010804
         5         5         1         1         1         3     -0.00009704
         5         5         1         1         1         4     -0.00000000
         5         5         1         1         1         5      0.00000000
         5         5         1         1         1         6     -0.00013719
         5         5         1         1         2         1      0.00010804
         5         5         1         1         2         2     -0.00007532
         5         5         1         1         2         3      0.00009278
         5         5         1         1         2         4      0.00000000
         5         5         1         1         2         5     -0.00000000
         5         5         1         1         2         6      0.00017355
         5         5         1         1         3         1     -0.00009704
         5         5         1         1         3         2      0.00009278
         5         5         1         1         3         3     -0.00033112
         5         5         1         1         3         4     -0.00000000
         5         5         1         1         3         5      0.00000000
         5         5         1         1         3         6     -0.00007950
         5         5         1         1         4         1     -0.00000000
         5         5         1         1         4         2      0.00000000
         5         5         1         1         4         3     -0.00000000
         5         5         1         1         4         4     -0.00020620
         5         5         1         1         4         5      0.00014662
         5         5         1         1         4         6     -0.00000000
         5         5         1         1         5         1      0.00000000
         5         5         1         1         5         2     -0.00000000
         5         5         1         1         5         3      0.00000000
         5         5         1         1         5         4      0.00014662
         5         5         1         1         5         5     -0.00212707
         5         5         1         1         5         6      0.00000000
         5         5         1         1         6         1     -0.00013719
         5         5         1         1         6         2      0.00017355
         5         5         1         1         6         3     -0.00007950
         5         5         1         1         6         4     -0.00000000
         5         5         1         1         6         5      0.00000000
         5         5         1         1         6         6     -0.00030528
         6         1         1         1         1         1      0.00000006
         6         1         1         1         1         2     -0.00000167
         6         1         1         1         1         3     -0.00000733
         6         1         1         1         1         4      0.00000000
         6         1         1         1         1         5     -0.00000000
         6         1         1         1         1         6      0.00000456
         6         1         1         1         2         1     -0.00000271
         6         1         1         1         2         2      0.00000143
         6         1         1         1         2         3      0.00001233
         6         1         1         1         2         4      0.00000000
         6         1         1         1         2         5     -0.00000000
         6         1         1         1         2         6     -0.00000976
         6         1         1         1         3         1     -0.00000373
         6         1         1         1         3         2      0.00000550
         6         1         1         1         3         3      0.00000249
         6         1         1         1         3         4      0.00000000
         6         1         1         1         3         5     -0.00000000
         6         1         1         1         3         6     -0.00001042
         6         1         1         1         4         1      0.00000000
         6         1         1         1         4         2      0.00000000
         6         1         1         1         4         3     -0.00000000
         6         1         1         1         4         4      0.00002309
         6         1         1         1         4         5     -0.00000000
         6         1         1         1         4         6      0.00000000
         6         1         1         1         5         1     -0.00000000
         6         1         1         1         5         2     -0.00000000
         6         1         1         1         5         3      0.00000000
         6         1         1         1         5         4      0.00000000
         6         1         1         1         5         5      0.00002309
         6         1         1         1         5         6     -0.00000000
         6         1         1         1         6         1      0.00000155
         6         1         1         1         6         2     -0.00000295
         6         1         1         1         6         3     -0.00001612
         6         1         1         1         6         4      0.00000000
         6         1         1         1         6         5     -0.00000000
         6         1         1         1         6         6      0.00001027
         6         2         1         1         1         1      0.00006981
         6         2         1         1         1         2     -0.00009759
         6         2         1         1         1         3      0.00019341
         6         2         1         1         1         4     -0.00000000
         6         2         1         1         1         5      0.00000000
         6         2         1         1         1         6     -0.00001602
         6         2         1         1         2         1     -0.00007113
         6         2         1         1         2         2     -0.00000007
         6         2         1         1         2         3     -0.00037021
         6         2         1         1         2         4      0.00000000
         6         2         1         1         2         5     -0.00000000
         6         2         1         1         2         6     -0.00007675
         6         2         1         1         3         1      0.00010798
         6         2         1         1         3         2     -0.00017961
         6         2         1         1         3         3      0.00004994
         6         2         1         1         3         4     -0.00000000
         6         2         1         1         3         5      0.00000000
         6         2         1         1         3         6      0.00020588
         6         2         1         1         4         1     -0.00000000
         6         2         1         1         4         2      0.00000000
         6         2         1         1         4         3     -0.00000000
         6         2         1         1         4         4     -0.00033900
         6         2         1         1         4         5      0.00000000
         6         2         1         1         4         6     -0.00000000
         6         2         1         1         5         1      0.00000000
         6         2         1         1         5         2     -0.00000000
         6         2         1         1         5         3      0.00000000
         6         2         1         1         5         4      0.00000000
         6         2         1         1         5         5     -0.00033900
         6         2         1         1         5         6      0.00000000
         6         2         1         1         6         1      0.00011696
         6         2         1         1         6         2     -0.00031012
         6         2         1         1         6         3      0.00028820
         6         2         1         1         6         4     -0.00000000
         6         2         1         1         6         5      0.00000000
         6         2         1         1         6         6     -0.00004411
         6         3         1         1         1         1     -0.00015123
         6         3         1         1         1         2      0.00014370
         6         3         1         1         1         3      0.00035130
         6         3         1         1         1         4      0.00000000
         6         3         1         1         1         5      0.00000000
         6         3         1         1         1         6     -0.00031996
         6         3         1         1         2         1      0.00013778
         6         3         1         1         2         2      0.00018609
         6         3         1         1         2         3     -0.00032860
         6         3         1         1         2         4      0.00000000
         6         3         1         1         2         5     -0.00000000
         6         3         1         1         2         6      0.00053301
         6         3         1         1         3         1     -0.00007447
         6         3         1         1         3         2      0.00027664
         6         3         1         1         3         3      0.00010600
         6         3         1         1         3         4     -0.00000000
         6         3         1         1         3         5      0.00000000
         6         3         1         1         3         6     -0.00008152
         6         3         1         1         4         1      0.00000000
         6         3         1         1         4         2      0.00000000
         6         3         1         1         4         3     -0.00000000
         6         3         1         1         4         4      0.00004162
         6         3         1         1         4         5     -0.00000000
         6         3         1         1         4         6      0.00000000
         6         3         1         1         5         1     -0.00000000
         6         3         1         1         5         2     -0.00000000
         6         3         1         1         5         3      0.00000000
         6         3         1         1         5         4     -0.00000000
         6         3         1         1         5         5      0.00004162
         6         3         1         1         5         6     -0.00000000
         6         3         1         1         6         1     -0.00028198
         6         3         1         1         6         2      0.00051061
         6         3         1         1         6         3      0.00062396
         6         3         1         1         6         4      0.00000000
         6         3         1         1         6         5      0.00000000
         6         3         1         1         6         6     -0.00047177
         6         4         1         1         1         1      0.00000000
         6         4         1         1         1         2     -0.00000000
         6         4         1         1         1         3      0.00000000
         6         4         1         1         1         4     -0.00029310
         6         4         1         1         1         5     -0.00002224
         6         4         1         1         1         6     -0.00000000
         6         4         1         1         2         1     -0.00000000
         6         4         1         1         2         2      0.00000000
         6         4         1         1         2         3     -0.00000000
         6         4         1         1         2         4      0.00055470
         6         4         1         1         2         5      0.00004210
         6         4         1         1         2         6     -0.00000000
         6         4         1         1         3         1      0.00000000
         6         4         1         1         3         2     -0.00000000
         6         4         1         1         3         3      0.00000000
         6         4         1         1         3         4     -0.00031399
         6         4         1         1         3         5     -0.00002383
         6         4         1         1         3         6      0.00000000
         6         4         1         1         4         1      0.00018506
         6         4         1         1         4         2     -0.00004466
         6         4         1         1         4         3      0.00016686
         6         4         1         1         4         4     -0.00000000
         6         4         1         1         4         5      0.00000000
         6         4         1         1         4         6      0.00037960
         6         4         1         1         5         1      0.00001404
         6         4         1         1         5         2     -0.00000339
         6         4         1         1         5         3      0.00001266
         6         4         1         1         5         4     -0.00000000
         6         4         1         1         5         5     -0.00000000
         6         4         1         1         5         6      0.00002881
         6         4         1         1         6         1      0.00000000
         6         4         1         1         6         2      0.00000000
         6         4         1         1         6         3      0.00000000
         6         4         1         1         6         4     -0.00050538
         6         4         1         1         6         5     -0.00003835
         6         4         1         1         6         6      0.00000000
         6         5         1         1         1         1      0.00000000
         6         5         1         1         1         2     -0.00000000
         6         5         1         1         1         3      0.00000000
         6         5         1         1         1         4     -0.00002224
         6         5         1         1         1         5      0.00029310
         6         5         1         1         1         6     -0.00000000
         6         5         1         1         2         1     -0.00000000
         6         5         1         1         2         2      0.00000000
         6         5         1         1         2         3     -0.00000000
         6         5         1         1         2         4      0.00004210
         6         5         1         1         2         5     -0.00055470
         6         5         1         1         2         6     -0.00000000
         6         5         1         1         3         1      0.00000000
         6         5         1         1         3         2     -0.00000000
         6         5         1         1         3         3      0.00000000
         6         5         1         1         3         4     -0.00002383
         6         5         1         1         3         5      0.00031399
         6         5         1         1         3         6      0.00000000
         6         5         1         1         4         1      0.00001404
         6         5         1         1         4         2     -0.00000339
         6         5         1         1         4         3      0.00001266
         6         5         1         1         4         4     -0.00000000
         6         5         1         1         4         5     -0.00000000
         6         5         1         1         4         6      0.00002881
         6         5         1         1         5         1     -0.00018506
         6         5         1         1         5         2      0.00004466
         6         5         1         1         5         3     -0.00016686
         6         5         1         1         5         4      0.00000000
         6         5         1         1         5         5     -0.00000000
         6         5         1         1         5         6     -0.00037960
         6         5         1         1         6         1      0.00000000
         6         5         1         1         6         2      0.00000000
         6         5         1         1         6         3      0.00000000
         6         5         1         1         6         4     -0.00003835
         6         5         1         1         6         5      0.00050538
         6         5         1         1         6         6      0.00000000
         6         6         1         1         1         1     -0.00792787
         6         6         1         1         1         2      0.00305633
         6         6         1         1         1         3     -0.00183975
         6         6         1         1         1         4      0.00000000
         6         6         1         1         1         5     -0.00000000
         6         6         1         1         1         6     -0.01072826
         6         6         1         1         2         1      0.00305633
         6         6         1         1         2         2     -0.01348750
         6         6         1         1         2         3      0.00048846
         6         6         1         1         2         4      0.00000000
         6         6         1         1         2         5     -0.00000000
         6         6         1         1         2         6     -0.00423475
         6         6         1         1         3         1     -0.00183975
         6         6         1         1         3         2      0.00048846
         6         6         1         1         3         3     -0.00381148
         6         6         1         1         3         4      0.00000000
         6         6         1         1         3         5     -0.00000000
         6         6         1         1         3         6     -0.00270715
         6         6         1         1         4         1      0.00000000
         6         6         1         1         4         2      0.00000000
         6         6         1         1         4         3      0.00000000
         6         6         1         1         4         4     -0.00659396
         6         6         1         1         4         5      0.00000000
         6         6         1         1         4         6      0.00000000
         6         6         1         1         5         1     -0.00000000
         6         6         1         1         5         2     -0.00000000
         6         6         1         1         5         3     -0.00000000
         6         6         1         1         5         4      0.00000000
         6         6         1         1         5         5     -0.00659396
         6         6         1         1         5         6     -0.00000000
         6         6         1         1         6         1     -0.01072826
         6         6         1         1         6         2     -0.00423475
         6         6         1         1         6         3     -0.00270715
         6         6         1         1         6         4      0.00000000
         6         6         1         1         6         5     -0.00000000
         6         6         1         1         6         6     -0.02232095
         7         1         1         1         1         1     -0.00000017
         7         1         1         1         1         2     -0.00000102
         7         1         1         1         1         3     -0.00000157
         7         1         1         1         1         4      0.00000000
         7         1         1         1         1         5      0.00000000
         7         1         1         1         1         6      0.00000114
         7         1         1         1         2         1      0.00000205
         7         1         1         1         2         2     -0.00000305
         7         1         1         1         2         3     -0.00000525
         7         1         1         1         2         4     -0.00000000
         7         1         1         1         2         5      0.00000000
         7         1         1         1         2         6      0.00000676
         7         1         1         1         3         1     -0.00000736
         7         1         1         1         3         2      0.00000954
         7         1         1         1         3         3      0.00000843
         7         1         1         1         3         4      0.00000000
         7         1         1         1         3         5     -0.00000000
         7         1         1         1         3         6     -0.00002051
         7         1         1         1         4         1      0.00000000
         7         1         1         1         4         2      0.00000000
         7         1         1         1         4         3      0.00000000
         7         1         1         1         4         4      0.00001182
         7         1         1         1         4         5      0.00000000
         7         1         1         1         4         6      0.00000000
         7         1         1         1         5         1     -0.00000000
         7         1         1         1         5         2     -0.00000000
         7         1         1         1         5         3     -0.00000000
         7         1         1         1         5         4      0.00000000
         7         1         1         1         5         5      0.00001182
         7         1         1         1         5         6     -0.00000000
         7         1         1         1         6         1      0.00000308
         7         1         1         1         6         2     -0.00000528
         7         1         1         1         6         3     -0.00000451
         7         1         1         1         6         4      0.00000000
         7         1         1         1         6         5     -0.00000000
         7         1         1         1         6         6      0.00000935
         7         2         1         1         1         1     -0.00009354
         7         2         1         1         1         2      0.00009377
         7         2         1         1         1         3      0.00013534
         7         2         1         1         1         4      0.00000000
         7         2         1         1         1         5      0.00000000
         7         2         1         1         1         6     -0.00022529
         7         2         1         1         2         1     -0.00002530
         7         2         1         1         2         2      0.00012167
         7         2         1         1         2         3      0.00020971
         7         2         1         1         2         4      0.00000000
         7         2         1         1         2         5     -0.00000000
         7         2         1         1         2         6     -0.00007811
         7         2         1         1         3         1      0.00026716
         7         2         1         1         3         2     -0.00026177
         7         2         1         1         3         3      0.00017415
         7         2         1         1         3         4     -0.00000000
         7         2         1         1         3         5      0.00000000
         7         2         1         1         3         6      0.00053724
         7         2         1         1         4         1     -0.00000000
         7         2         1         1         4         2      0.00000000
         7         2         1         1         4         3     -0.00000000
         7         2         1         1         4         4     -0.00018662
         7         2         1         1         4         5     -0.00000000
         7         2         1         1         4         6     -0.00000000
         7         2         1         1         5         1      0.00000000
         7         2         1         1         5         2     -0.00000000
         7         2         1         1         5         3      0.00000000
         7         2         1         1         5         4      0.00000000
         7         2         1         1         5         5     -0.00018662
         7         2         1         1         5         6      0.00000000
         7         2         1         1         6         1     -0.00023001
         7         2         1         1         6         2      0.00034536
         7         2         1         1         6         3      0.00013120
         7         2         1         1         6         4     -0.00000000
         7         2         1         1         6         5      0.00000000
         7         2         1         1         6         6     -0.00046521
         7         3         1         1         1         1     -0.00000907
         7         3         1         1         1         2     -0.00022401
         7         3         1         1         1         3      0.00022898
         7         3         1         1         1         4      0.00000000
         7         3         1         1         1         5     -0.00000000
         7         3         1         1         1         6     -0.00013686
         7         3         1         1         2         1     -0.00005748
         7         3         1         1         2         2     -0.00026927
         7         3         1         1         2         3      0.00020394
         7         3         1         1         2         4      0.00000000
         7         3         1         1         2         5     -0.00000000
         7         3         1         1         2         6     -0.00030012
         7         3         1         1         3         1     -0.00015125
         7         3         1         1         3         2      0.00041168
         7         3         1         1         3         3      0.00028189
         7         3         1         1         3         4      0.00000000
         7         3         1         1         3         5     -0.00000000
[...]
         9         3         1         1         5         6     -0.00063252
         9         3         1         1         6         1      0.00000000
         9         3         1         1         6         2     -0.00000000
         9         3         1         1         6         3      0.00000000
         9         3         1         1         6         4      0.00003163
         9         3         1         1         6         5      0.00017995
         9         3         1         1         6         6      0.00000000
         9         4         1         1         1         1      0.00003417
         9         4         1         1         1         2     -0.00001165
         9         4         1         1         1         3      0.00002745
         9         4         1         1         1         4     -0.00000000
         9         4         1         1         1         5     -0.00000000
         9         4         1         1         1         6      0.00007029
         9         4         1         1         2         1      0.00001359
         9         4         1         1         2         2     -0.00000769
         9         4         1         1         2         3      0.00001929
         9         4         1         1         2         4      0.00000000
         9         4         1         1         2         5      0.00000000
         9         4         1         1         2         6      0.00001276
         9         4         1         1         3         1      0.00000575
         9         4         1         1         3         2      0.00000689
         9         4         1         1         3         3      0.00002115
         9         4         1         1         3         4     -0.00000000
         9         4         1         1         3         5     -0.00000000
         9         4         1         1         3         6      0.00000785
         9         4         1         1         4         1      0.00000000
         9         4         1         1         4         2     -0.00000000
         9         4         1         1         4         3      0.00000000
         9         4         1         1         4         4     -0.00011431
         9         4         1         1         4         5      0.00013998
         9         4         1         1         4         6      0.00000000
         9         4         1         1         5         1      0.00000000
         9         4         1         1         5         2      0.00000000
         9         4         1         1         5         3     -0.00000000
         9         4         1         1         5         4     -0.00096927
         9         4         1         1         5         5     -0.00003258
         9         4         1         1         5         6      0.00000000
         9         4         1         1         6         1      0.00004672
         9         4         1         1         6         2     -0.00002009
         9         4         1         1         6         3      0.00002261
         9         4         1         1         6         4     -0.00000000
         9         4         1         1         6         5     -0.00000000
         9         4         1         1         6         6      0.00010600
         9         5         1         1         1         1     -0.00013399
         9         5         1         1         1         2      0.00004568
         9         5         1         1         1         3     -0.00010762
         9         5         1         1         1         4      0.00000000
         9         5         1         1         1         5     -0.00000000
         9         5         1         1         1         6     -0.00027561
         9         5         1         1         2         1     -0.00005327
         9         5         1         1         2         2      0.00003016
         9         5         1         1         2         3     -0.00007565
         9         5         1         1         2         4     -0.00000000
         9         5         1         1         2         5      0.00000000
         9         5         1         1         2         6     -0.00005004
         9         5         1         1         3         1     -0.00002255
         9         5         1         1         3         2     -0.00002701
         9         5         1         1         3         3     -0.00008292
         9         5         1         1         3         4      0.00000000
         9         5         1         1         3         5     -0.00000000
         9         5         1         1         3         6     -0.00003076
         9         5         1         1         4         1      0.00000000
         9         5         1         1         4         2     -0.00000000
         9         5         1         1         4         3      0.00000000
         9         5         1         1         4         4     -0.00012669
         9         5         1         1         4         5      0.00018232
         9         5         1         1         4         6      0.00000000
         9         5         1         1         5         1     -0.00000000
         9         5         1         1         5         2      0.00000000
         9         5         1         1         5         3     -0.00000000
         9         5         1         1         5         4     -0.00010059
         9         5         1         1         5         5      0.00070259
         9         5         1         1         5         6     -0.00000000
         9         5         1         1         6         1     -0.00018319
         9         5         1         1         6         2      0.00007877
         9         5         1         1         6         3     -0.00008863
         9         5         1         1         6         4      0.00000000
         9         5         1         1         6         5     -0.00000000
         9         5         1         1         6         6     -0.00041561
         9         6         1         1         1         1     -0.00000000
         9         6         1         1         1         2      0.00000000
         9         6         1         1         1         3      0.00000000
         9         6         1         1         1         4     -0.00112188
         9         6         1         1         1         5     -0.00638301
         9         6         1         1         1         6     -0.00000000
         9         6         1         1         2         1      0.00000000
         9         6         1         1         2         2     -0.00000000
         9         6         1         1         2         3      0.00000000
         9         6         1         1         2         4      0.00035760
         9         6         1         1         2         5      0.00203457
         9         6         1         1         2         6     -0.00000000
         9         6         1         1         3         1      0.00000000
         9         6         1         1         3         2      0.00000000
         9         6         1         1         3         3     -0.00000000
         9         6         1         1         3         4     -0.00084790
         9         6         1         1         3         5     -0.00482418
         9         6         1         1         3         6     -0.00000000
         9         6         1         1         4         1     -0.00169372
         9         6         1         1         4         2      0.00206450
         9         6         1         1         4         3     -0.00156747
         9         6         1         1         4         4      0.00000000
         9         6         1         1         4         5     -0.00000000
         9         6         1         1         4         6     -0.00139589
         9         6         1         1         5         1     -0.00963659
         9         6         1         1         5         2      0.01174613
         9         6         1         1         5         3     -0.00891826
         9         6         1         1         5         4     -0.00000000
         9         6         1         1         5         5      0.00000000
         9         6         1         1         5         6     -0.00794202
         9         6         1         1         6         1     -0.00000000
         9         6         1         1         6         2     -0.00000000
         9         6         1         1         6         3     -0.00000000
         9         6         1         1         6         4     -0.00116111
         9         6         1         1         6         5     -0.00660622
         9         6         1         1         6         6      0.00000000
         9         7         1         1         1         1      0.00000000
         9         7         1         1         1         2      0.00000000
         9         7         1         1         1         3      0.00000000
         9         7         1         1         1         4     -0.00036483
         9         7         1         1         1         5     -0.00207571
         9         7         1         1         1         6     -0.00000000
         9         7         1         1         2         1      0.00000000
         9         7         1         1         2         2     -0.00000000
         9         7         1         1         2         3      0.00000000
         9         7         1         1         2         4      0.00018131
         9         7         1         1         2         5      0.00103155
         9         7         1         1         2         6      0.00000000
         9         7         1         1         3         1      0.00000000
         9         7         1         1         3         2      0.00000000
         9         7         1         1         3         3     -0.00000000
         9         7         1         1         3         4     -0.00156938
         9         7         1         1         3         5     -0.00892910
         9         7         1         1         3         6     -0.00000000
         9         7         1         1         4         1      0.00006100
         9         7         1         1         4         2     -0.00058225
         9         7         1         1         4         3     -0.00415502
         9         7         1         1         4         4      0.00000000
         9         7         1         1         4         5     -0.00000000
         9         7         1         1         4         6      0.00046982
         9         7         1         1         5         1      0.00034704
         9         7         1         1         5         2     -0.00331275
         9         7         1         1         5         3     -0.02364033
         9         7         1         1         5         4     -0.00000000
         9         7         1         1         5         5      0.00000000
         9         7         1         1         5         6      0.00267306
         9         7         1         1         6         1     -0.00000000
         9         7         1         1         6         2      0.00000000
         9         7         1         1         6         3     -0.00000000
         9         7         1         1         6         4     -0.00008578
         9         7         1         1         6         5     -0.00048803
         9         7         1         1         6         6      0.00000000
         9         8         1         1         1         1      0.00000000
         9         8         1         1         1         2      0.00000000
         9         8         1         1         1         3     -0.00000000
         9         8         1         1         1         4      0.00000000
         9         8         1         1         1         5     -0.00000000
         9         8         1         1         1         6     -0.00000000
         9         8         1         1         2         1      0.00000000
         9         8         1         1         2         2      0.00000000
         9         8         1         1         2         3     -0.00000000
         9         8         1         1         2         4     -0.00000000
         9         8         1         1         2         5      0.00000000
         9         8         1         1         2         6     -0.00000000
         9         8         1         1         3         1     -0.00000000
         9         8         1         1         3         2     -0.00000000
         9         8         1         1         3         3      0.00000000
         9         8         1         1         3         4      0.00000000
         9         8         1         1         3         5     -0.00000000
         9         8         1         1         3         6      0.00000000
         9         8         1         1         4         1      0.00000000
         9         8         1         1         4         2     -0.00000000
         9         8         1         1         4         3      0.00000000
         9         8         1         1         4         4     -0.00620299
         9         8         1         1         4         5     -0.00672738
         9         8         1         1         4         6      0.00000000
         9         8         1         1         5         1      0.00000000
         9         8         1         1         5         2      0.00000000
         9         8         1         1         5         3     -0.00000000
         9         8         1         1         5         4     -0.02747483
         9         8         1         1         5         5      0.00620299
         9         8         1         1         5         6      0.00000000
         9         8         1         1         6         1     -0.00000000
         9         8         1         1         6         2     -0.00000000
         9         8         1         1         6         3      0.00000000
         9         8         1         1         6         4     -0.00000000
         9         8         1         1         6         5     -0.00000000
         9         8         1         1         6         6      0.00000000
         9         9         1         1         1         1     -0.00917718
         9         9         1         1         1         2     -0.00398303
         9         9         1         1         1         3     -0.00068076
         9         9         1         1         1         4     -0.00000000
         9         9         1         1         1         5      0.00000000
         9         9         1         1         1         6     -0.00617009
         9         9         1         1         2         1     -0.00398303
         9         9         1         1         2         2     -0.01242642
         9         9         1         1         2         3      0.00712088
         9         9         1         1         2         4      0.00000000
         9         9         1         1         2         5     -0.00000000
         9         9         1         1         2         6     -0.00090833
         9         9         1         1         3         1     -0.00068076
         9         9         1         1         3         2      0.00712088
         9         9         1         1         3         3     -0.01062400
         9         9         1         1         3         4     -0.00000000
         9         9         1         1         3         5      0.00000000
         9         9         1         1         3         6     -0.00124101
         9         9         1         1         4         1     -0.00000000
         9         9         1         1         4         2      0.00000000
         9         9         1         1         4         3     -0.00000000
         9         9         1         1         4         4     -0.00486819
         9         9         1         1         4         5     -0.00620299
         9         9         1         1         4         6      0.00000000
         9         9         1         1         5         1      0.00000000
         9         9         1         1         5         2     -0.00000000
         9         9         1         1         5         3      0.00000000
         9         9         1         1         5         4     -0.00620299
         9         9         1         1         5         5     -0.03907040
         9         9         1         1         5         6      0.00000000
         9         9         1         1         6         1     -0.00617009
         9         9         1         1         6         2     -0.00090833
         9         9         1         1         6         3     -0.00124101
         9         9         1         1         6         4      0.00000000
         9         9         1         1         6         5      0.00000000
         9         9         1         1         6         6     -0.00581320


 RESULTS
 =======

  Reference energy                   -459.608317213097

  Correlated core orbitals:             1.1       2.1       3.1       4.1       5.1
  Orbital energies:                  -104.8130  -10.5885   -8.0656   -8.0444   -8.0444

  CCD core-core energy                 -0.001526449141
  CCD core-valence energy              -0.000719273494
  CCD valence correlation energy       -0.044128109226

  CCD singlet pair energy              -0.035526689921
  CCD triplet pair energy              -0.010847141940
  CCD correlation energy               -0.046373831861

 !CCD total energy                   -459.654691044957

 Timing summary (sec):

 STEP                 CPU(USER)    SYS     CPU(TOT)    WALL
 CCSD iterations         0.08      0.01      0.09      0.09

 Program statistics:

 Available memory in ccsd:                39998876
 Min. memory needed in ccsd:                 14983
 Max. memory used in ccsd:                   14983
 Max. memory used in cckext:                 58394 (15 integral passes)



 **********************************************************************************************************************************
 DATASETS  * FILE   NREC   LENGTH (MB)   RECORD NAMES
              1      20       30.11       500      700      610      900      950      970     1000      129      960     1100   
                                          VAR     GEOM    BASINP   SYMINP    ZMAT    AOBASIS   BASIS     P2S    ABASIS      S 
                                         1400     1410     1200     1210     1080     1600     1650     1300     1700     1380   
                                           T        V       H0       H01     AOSYM     SMH    MOLCAS    ERIS     OPER     JKOP   

              3       5       14.77       500      610      700     1000     2100   
                                          VAR    BASINP    GEOM     BASIS     RHF  

 PROGRAMS   *        TOTAL      CCSD       INT   RESTART
 CPU TIMES  *         0.35      0.15      0.11      0.01
 REAL TIME  *         0.48 SEC
 DISK USED  *        49.44 MB
 **********************************************************************************************************************************
 Molecular orbitals read from record     2100.3  Type=RHF/CANONICAL (state 1.1)
 Occupation numbers read from record     2100.3  Type=RHF/RHF (state 1.1)
 Orbital energies read from record       2100.3  Type=RHF/CANONICAL (state 1.1)
 Redundancy group numbers read from rec  2100.3  Type=RHF/RHF (state 1.1)

 CCSD/6-31G energy=   -459.654691044957

            CCSD
   -459.65469104
 **********************************************************************************************************************************
 Molpro calculation terminated
