
 Primary working directories    : /scr/yuriaoto/job.023725/molpro.bW1iTxXhNW
 Secondary working directories  : /scr/yuriaoto/job.023725/molpro.bW1iTxXhNW
 Wavefunction directory         : /scr/yuriaoto/job.023725/
 Main file repository           : /scr/yuriaoto/job.023725/molpro.bW1iTxXhNW/

 id        : yuriaoto

 Nodes             nprocs
 t-rex.ufabc.int.br    1

 Using customized tuning parameters: mindgm=8; mindgv=16; mindgc=1; mindgr=1; noblas=0; minvec=7
 default implementation of scratch files=df  


 Variables initialized (933), CPU time= 0.01 sec
 ***,
 memory,40,m
 gprint,orbital,basis,civector
 gthresh,printci=0.0,thrprint=0
 file,3,wfu.dat,old
 
 {bccd,SAVEORB=2150.2,print,CC_NORM_MAX=10.0
 thresh,printci=0.0,ENERGY=1.0E-10,COEFF=1.0E-12
 print,ref=1
 core,0
 wf,6,1,0;
 }
 
 {put,xml,orbitals.xml; orbital,2150.2; nosort; novariables}
 
 Commands  initialized (760), CPU time= 0.01 sec, 617 directives.
 Default parameters read. Elapsed time= 0.04 sec

 Checking input...
 Passed
1


                                         ***  PROGRAM SYSTEM MOLPRO  ***
                                       Copyright, TTI GmbH Stuttgart, 2015
                                    Version 2019.2 linked Abr  7 2019 15:10:35


 **********************************************************************************************************************************
 LABEL *                                                                                 
  64 bit serial version                                                                  DATE: 05-Jun-20          TIME: 23:41:27  
 **********************************************************************************************************************************

 SHA1:             3a8a58c585c929645742fb5a1b7541a4ad1da699
 **********************************************************************************************************************************


 THRESHOLDS:

 ZERO    =  1.00D-12  ONEINT  =  1.00D-12  TWOINT  =  1.00D-11  PREFAC  =  1.00D-14  XXXXXX  =  1.00D-09  EORDER  =  1.00D-04
 ENERGY  =  0.00D+00  ETEST   =  0.00D+00  EDENS   =  0.00D+00  THRDEDEF=  1.00D-06  GRADIENT=  1.00D-02  STEP    =  1.00D-03
 ORBITAL =  1.00D-05  CIVEC   =  1.00D-05  COEFF   =  1.00D-04  PRINTCI =  0.00D+00  PUNCHCI =  9.90D+01  OPTGRAD =  3.00D-04
 OPTENERG=  1.00D-06  OPTSTEP =  3.00D-04  THRGRAD =  1.00D-10  COMPRESS=  1.00D-11  VARMIN  =  1.00D-07  VARMAX  =  1.00D-03
 THRDOUB =  0.00D+00  THRDIV  =  1.00D-05  THRRED  =  1.00D-07  THRPSP  =  1.00D+00  THRDC   =  1.00D-10  THRCS   =  1.00D-10
 THRNRM  =  1.00D-08  THREQ   =  0.00D+00  THRDE   =  1.00D+00  THRREF  =  1.00D-05  SPARFAC =  1.00D+00  THRDLP  =  1.00D-07
 THRDIA  =  1.00D-10  THRDLS  =  1.00D-07  THRGPS  =  0.00D+00  THRKEX  =  0.00D+00  THRDIS  =  2.00D-01  THRVAR  =  1.00D-10
 THRLOC  =  1.00D-06  THRGAP  =  1.00D-06  THRLOCT = -1.00D+00  THRGAPT = -1.00D+00  THRORB  =  1.00D-06  THRMLTP =  0.00D+00
 THRCPQCI=  1.00D-10  KEXTA   =  0.00D+00  THRCOARS=  0.00D+00  SYMTOL  =  1.00D-06  GRADTOL =  1.00D-06  THROVL  =  1.00D-08
 THRORTH =  1.00D-08  GRID    =  1.00D-06  GRIDMAX =  1.00D-03  DTMAX   =  0.00D+00  THROCCDE=  1.00D-01  THROCCDE=  1.00D-01
 THRPRINT=  0.00D+00


 Variable memory set to   40000000 words,  buffer space 



 Permanent file  3  wfu.dat  assigned.  Implementation=df    Size= 14.08 MB


 PROGRAM * RESTART 


 Reading variables from file 3

 _FNUC           =      0.00000000
 _BASIS          =    6-31G
 _NELEC          =      6.00000000
 _PROGRAM        =    RHF-SCF
 _DMX_SCF        =      0.00000000
 _DMY_SCF        =      0.00000000
 _DMZ_SCF        =      0.00000000
 _HOMO           =      2.10000000
 _EHOMO          =     -0.17851736
 _LUMO           =      2.50000000
 _ELUMO          =      0.01777251
 _ENERGY         =    -14.86544674
 _ENERGY_METHOD  =    RHF
 _ENERGY_BASIS   =    6-31G
 _ENUC           =      1.80000000
 _EPS1(1:5)      =     -2.44083670    -0.17851736     0.06347959     0.19419351     0.22544151
 _EPS2(1:2)      =      0.04562594     0.20818036
 _EPS3(1:2)      =      0.04562594     0.20818036
 _EPS5(1:5)      =     -2.44048575     0.01777251     0.13971385     0.26575149     0.54809025
 _EPS6(1:2)      =      0.09250729     0.27049360
 _EPS7(1:2)      =      0.09250729     0.27049360
 _IPROC_MPP      =      0.00000000
 _IPROC_MPPX     =      0.00000000
 _ORBITAL        =   2100.30000000
 _STATUS         =      1.00000000
 _DATE           =    21-Oct-19
 _LASTORB        =    RHF
 _OUTPUT         =    /scr/yuriaoto/job.022400/RHF.xml
 _PGROUP         =    D2h 
 _TIME           =    10:18:24
 R               =      5.00000000

 Geometry written to block  1 of record 700


 **********************************************************************************************************************************
 DATASETS  * FILE   NREC   LENGTH (MB)   RECORD NAMES
              3       5       14.77       500      610      700     1000     2100   
                                          VAR    BASINP    GEOM     BASIS     RHF  

 PROGRAMS   *        TOTAL   RESTART
 CPU TIMES  *         0.17      0.04
 REAL TIME  *         0.21 SEC
 DISK USED  *        26.84 MB
 **********************************************************************************************************************************


 Recomputing integrals since basis changed


 Using spherical harmonics

 Library entry LI     S 6-31G                selected for orbital group  1
 Library entry LI     P 6-31G                selected for orbital group  1


 PROGRAM * SEWARD (Integral evaluation for generally contracted gaussian basis sets)     Author: Roland Lindh, 1990

 Geometry written to block  1 of record 700

 Orientation using atomic masses  
 Molecule type: Linear
 User-specified symmetry elements: X,Y,Z
 Symmetry elements: X,Y,Z
 Rotational constants:      20.8009354     20.8009354      0.0000000 GHz  (calculated with average atomic masses)

 Point group  D2h 



 ATOMIC COORDINATES

 NR  ATOM    CHARGE       X              Y              Z

   1  LI1     3.00    0.000000000    0.000000000   -2.500000000
   2  LI2     3.00    0.000000000    0.000000000    2.500000000

 Bond lengths in Bohr (Angstrom)

 1-2  5.000000000
     ( 2.645886055)


 BASIS DATA

   Nr Sym  Nuc  Type         Exponents   Contraction coefficients

    1.1 Ag    1  1s         642.418910     0.002143
              2  1s          96.798515     0.016209
                             22.091121     0.077316
                              6.201070     0.245786
                              1.935118     0.470189
                              0.636736     0.345471
    2.1 Ag    1  1s           2.324918    -0.035092
              2  1s           0.632430    -0.191233
                              0.079053     1.083988
    3.1 Ag    1  1s           0.035962     1.000000
              2  1s    
    4.1 Ag    1  2pz          2.324918     0.008942
              2 -2pz          0.632430     0.141009
                              0.079053     0.945364
    5.1 Ag    1  2pz          0.035962     1.000000
              2 -2pz   
    1.2 B3u   1  2px          2.324918     0.008942
              2  2px          0.632430     0.141009
                              0.079053     0.945364
    2.2 B3u   1  2px          0.035962     1.000000
              2  2px   
    1.3 B2u   1  2py          2.324918     0.008942
              2  2py          0.632430     0.141009
                              0.079053     0.945364
    2.3 B2u   1  2py          0.035962     1.000000
              2  2py   
    1.5 B1u   1  1s         642.418910     0.002143
              2 -1s          96.798515     0.016209
                             22.091121     0.077316
                              6.201070     0.245786
                              1.935118     0.470189
                              0.636736     0.345471
    2.5 B1u   1  1s           2.324918    -0.035092
              2 -1s           0.632430    -0.191233
                              0.079053     1.083988
    3.5 B1u   1  1s           0.035962     1.000000
              2 -1s    
    4.5 B1u   1  2pz          2.324918     0.008942
              2  2pz          0.632430     0.141009
                              0.079053     0.945364
    5.5 B1u   1  2pz          0.035962     1.000000
              2  2pz   
    1.6 B2g   1  2px          2.324918     0.008942
              2 -2px          0.632430     0.141009
                              0.079053     0.945364
    2.6 B2g   1  2px          0.035962     1.000000
              2 -2px   
    1.7 B3g   1  2py          2.324918     0.008942
              2 -2py          0.632430     0.141009
                              0.079053     0.945364
    2.7 B3g   1  2py          0.035962     1.000000
              2 -2py   

 NUCLEAR CHARGE:                    6
 NUMBER OF PRIMITIVE AOS:          44
 NUMBER OF SYMMETRY AOS:           44
 NUMBER OF CONTRACTIONS:           18   (    5Ag  +    2B3u +    2B2u +    0B1g +    5B1u +    2B2g +    2B3g +    0Au  )
 NUMBER OF CORE ORBITALS:           2   (    1Ag  +    0B3u +    0B2u +    0B1g +    1B1u +    0B2g +    0B3g +    0Au  )
 NUMBER OF VALENCE ORBITALS:        8   (    2Ag  +    1B3u +    1B2u +    0B1g +    2B1u +    1B2g +    1B3g +    0Au  )


 NUCLEAR REPULSION ENERGY    1.80000000

 Eigenvalues of metric

         1 0.103E+00 0.180E+00 0.946E+00 0.140E+01 0.370E+01
         2 0.252E+00 0.273E+01
         3 0.252E+00 0.273E+01
         5 0.422E-02 0.112E+00 0.166E+00 0.962E+00 0.242E+01
         6 0.108E+00 0.907E+00
         7 0.108E+00 0.907E+00


 Contracted 2-electron integrals neglected if value below      1.0D-11
 AO integral compression algorithm  1   Integral accuracy      1.0D-11

     0.262 MB (compressed) written to integral file (100.0%)


 NUMBER OF SORTED TWO-ELECTRON INTEGRALS:       2829.     BUFFER LENGTH:  32768
 NUMBER OF SEGMENTS:   1  SEGMENT LENGTH:       2829      RECORD LENGTH: 524288

 Memory used in sort:       0.56 MW

 SORT1 READ        8184. AND WROTE        2829. INTEGRALS IN      1 RECORDS. CPU TIME:     0.00 SEC, REAL TIME:     0.01 SEC
 SORT2 READ        2829. AND WROTE        2829. INTEGRALS IN      1 RECORDS. CPU TIME:     0.01 SEC, REAL TIME:     0.01 SEC

 FILE SIZES:   FILE 1:    30.2 MBYTE,  FILE 4:     4.2 MBYTE,   TOTAL:     34.4 MBYTE

 OPERATOR DM      FOR CENTER  0  COORDINATES:    0.000000    0.000000    0.000000


 **********************************************************************************************************************************
 DATASETS  * FILE   NREC   LENGTH (MB)   RECORD NAMES
              1      19       29.97       500      700      610      900      950      970     1000      129      960     1100   
                                          VAR     GEOM    BASINP   SYMINP    ZMAT    AOBASIS   BASIS     P2S    ABASIS      S 
                                         1400     1410     1200     1210     1080     1600     1650     1300     1700   
                                           T        V       H0       H01     AOSYM     SMH    MOLCAS    ERIS     OPER   

              3       5       14.77       500      610      700     1000     2100   
                                          VAR    BASINP    GEOM     BASIS     RHF  

 PROGRAMS   *        TOTAL       INT   RESTART
 CPU TIMES  *         0.34      0.17      0.04
 REAL TIME  *         0.48 SEC
 DISK USED  *        49.44 MB
 **********************************************************************************************************************************


 PROGRAM * BCCD (Closed-shell Brueckner coupled-cluster)     Authors: C. Hampel, H.-J. Werner, 1991, M. Deegan, P.J. Knowles, 1992


 Input parameters for THRESH:

 ENERGY   =    1.00D-10
 COEFF    =    1.00D-12
 PRINTCI  =    0.000000
 THRPRINT =    0.000000

 Convergence thresholds:  THRVAR = 1.00D-24  THRDEN = 1.00D-10

 Number of closed-shell orbitals:   3 (   2   0   0   0   1   0   0 )
 Number of external orbitals:      15 (   3   2   2   0   4   2   2 )

 Molecular orbitals read from record     2100.3  Type=RHF/CANONICAL (state 1.1)

 Number of N-1 electron functions:               3
 Number of N-2 electron functions:               6
 Number of singly external CSFs:                10
 Number of doubly external CSFs:               205
 Total number of CSFs:                         216

 Brueckner orbitals will be computed and saved on record    2150.2

 Length of J-op  integral file:               0.00 MB
 Length of K-op  integral file:               0.04 MB

 Integral transformation finished. Total CPU:   0.00 sec, npass=  1  Memory used:   0.07 MW

 Reference energy:                    -14.86544674

 MP2 singles energy:                   -0.00000000
 MP2 singlet pair energy:              -0.01624341
 MP2 triplet pair energy:              -0.00012344
 MP2 correlation energy:               -0.01636685
 MP2 total energy:                    -14.88181359

 SCS-MP2 correlation energy:           -0.01956890   (PS=  1.200000  PT=  0.333333)
 SCS-MP2 total energy:                -14.88501563

 ITER.      SQ.NORM     CORR.ENERGY   TOTAL ENERGY   ENERGY CHANGE        DEN1      VAR(S)    VAR(P)  DIIS     TIME  TIME/IT
   1      1.04776728    -0.02441243   -14.88985917    -0.00804558    -0.00431759  0.12D-03  0.27D-02  1  1     0.02     0.00
   2      1.09094434    -0.02650577   -14.89192737    -0.00209334    -0.00678314  0.61D-04  0.12D-02  2  2     0.02     0.01
   3      1.09601256    -0.02799949   -14.89324620    -0.00149372    -0.00030355  0.19D-05  0.65D-04  3  3     0.02     0.01
   4      1.09944707    -0.02812781   -14.89333425    -0.00012832    -0.00037848  0.31D-06  0.61D-05  4  4     0.03     0.01
   5      1.09945506    -0.02811567   -14.89330952     0.00001214     0.00001223  0.80D-07  0.79D-06  5  5     0.03     0.01
   6      1.09913278    -0.02811218   -14.89331160     0.00000349     0.00005038  0.23D-07  0.13D-06  6  6     0.04     0.01
   7      1.09941944    -0.02811278   -14.89331635    -0.00000060    -0.00002909  0.66D-08  0.37D-07  6  4     0.04     0.01
   8      1.09936396    -0.02810985   -14.89331333     0.00000292     0.00000723  0.30D-08  0.45D-08  6  1     0.04     0.01
   9      1.09937154    -0.02810958   -14.89331399     0.00000027    -0.00000030  0.37D-09  0.62D-09  6  3     0.05     0.01
  10      1.09937149    -0.02810921   -14.89331390     0.00000037     0.00000017  0.35D-10  0.66D-10  6  2     0.05     0.01
  11      1.09937312    -0.02810916   -14.89331390     0.00000006    -0.00000014  0.73D-11  0.15D-10  6  5     0.05     0.01
  12      1.09937289    -0.02810910   -14.89331388     0.00000005     0.00000007  0.22D-11  0.34D-11  6  6     0.06     0.00
  13      1.09937306    -0.02810907   -14.89331388     0.00000003     0.00000001  0.45D-12  0.12D-11  6  4     0.06     0.00
  14      1.09937305    -0.02810904   -14.89331388     0.00000003     0.00000001  0.18D-13  0.22D-12  6  1     0.06     0.00
  15      1.09937302    -0.02810903   -14.89331388     0.00000001     0.00000000  0.33D-14  0.38D-13  6  3     0.07     0.00
  16      1.09937298    -0.02810903   -14.89331388     0.00000000     0.00000000  0.17D-14  0.58D-14  6  2     0.07     0.00
  17      1.09937296    -0.02810903   -14.89331388    -0.00000000     0.00000000  0.74D-15  0.11D-14  6  5     0.07     0.00
  18      1.09937296    -0.02810903   -14.89331388    -0.00000000     0.00000000  0.17D-15  0.21D-15  6  6     0.08     0.00
  19      1.09937296    -0.02810903   -14.89331388    -0.00000000    -0.00000000  0.44D-16  0.65D-16  6  4     0.08     0.00
  20      1.09937296    -0.02810903   -14.89331388    -0.00000000    -0.00000000  0.10D-16  0.17D-16  6  3     0.08     0.00
  21      1.09937296    -0.02810903   -14.89331388    -0.00000000    -0.00000000  0.14D-17  0.33D-17  6  1     0.09     0.00
  22      1.09937296    -0.02810903   -14.89331388    -0.00000000    -0.00000000  0.47D-19  0.25D-18  6  2     0.09     0.00
  23      1.09937296    -0.02810903   -14.89331388    -0.00000000    -0.00000000  0.89D-20  0.46D-19  6  1     0.09     0.00
  24      1.09937296    -0.02810903   -14.89331388    -0.00000000    -0.00000000  0.13D-20  0.24D-20  6  5     0.09     0.00
  25      1.09937296    -0.02810903   -14.89331388    -0.00000000    -0.00000000  0.16D-21  0.34D-21  6  6     0.09     0.00
  26      1.09937296    -0.02810903   -14.89331388    -0.00000000     0.00000000  0.46D-23  0.36D-22  6  4     0.10     0.00
  27      1.09937296    -0.02810903   -14.89331388    -0.00000000     0.00000000  0.59D-24  0.73D-23  6  3     0.10     0.00
  28      1.09937296    -0.02810903   -14.89331388    -0.00000000     0.00000000  0.12D-24  0.13D-23  6  1     0.10     0.00
  29      1.09937296    -0.02810903   -14.89331388    -0.00000000     0.00000000  0.16D-25  0.21D-24  6  2     0.10     0.00

 Norm of t1 vector:      0.00000000      S-energy:    -0.00000000      T1 diagnostic:  0.00000000

 Orbital rotation generators (print threshold =  0.000E+00):

         I         SYM. A    A   T(IA)

         1         1         1      0.00010334
         1         1         2     -0.00020448
         1         1         3      0.00007095
         2         1         1     -0.01554632
         2         1         2      0.00762898
         2         1         3      0.01758835
         3         5         1     -0.00033677
         3         5         2      0.00033517
         3         5         3      0.00007836
         3         5         4      0.00036635

 Doubles amplitudes (print threshold =  0.000E+00):

         I         J         SYM. A    SYM. B    A         B      T(IJ, AB)

         1         1         1         1         1         1     -0.00002929
         1         1         1         1         1         2      0.00023870
         1         1         1         1         1         3      0.00010257
         1         1         1         1         2         1      0.00023870
         1         1         1         1         2         2     -0.00073081
         1         1         1         1         2         3     -0.00042185
         1         1         1         1         3         1      0.00010257
         1         1         1         1         3         2     -0.00042185
         1         1         1         1         3         3     -0.00069119
         1         1         2         2         1         1      0.00015934
         1         1         2         2         1         2     -0.00016319
         1         1         2         2         2         1     -0.00016319
         1         1         2         2         2         2     -0.00096926
         1         1         3         3         1         1      0.00015934
         1         1         3         3         1         2     -0.00016319
         1         1         3         3         2         1     -0.00016319
         1         1         3         3         2         2     -0.00096926
         1         1         5         5         1         1     -0.00043793
         1         1         5         5         1         2      0.00075596
         1         1         5         5         1         3     -0.00021733
         1         1         5         5         1         4     -0.00001119
         1         1         5         5         2         1      0.00075596
         1         1         5         5         2         2     -0.00113063
         1         1         5         5         2         3      0.00032476
         1         1         5         5         2         4      0.00003506
         1         1         5         5         3         1     -0.00021733
         1         1         5         5         3         2      0.00032476
         1         1         5         5         3         3     -0.00079615
         1         1         5         5         3         4     -0.00080833
         1         1         5         5         4         1     -0.00001119
         1         1         5         5         4         2      0.00003506
         1         1         5         5         4         3     -0.00080833
         1         1         5         5         4         4     -0.00131532
         1         1         6         6         1         1     -0.00001361
         1         1         6         6         1         2     -0.00014121
         1         1         6         6         2         1     -0.00014121
         1         1         6         6         2         2     -0.00133791
         1         1         7         7         1         1     -0.00001361
         1         1         7         7         1         2     -0.00014121
         1         1         7         7         2         1     -0.00014121
         1         1         7         7         2         2     -0.00133791
         2         1         1         1         1         1     -0.00068497
         2         1         1         1         1         2      0.00141647
         2         1         1         1         1         3      0.00105590
         2         1         1         1         2         1      0.00080696
         2         1         1         1         2         2     -0.00174625
         2         1         1         1         2         3     -0.00135075
         2         1         1         1         3         1      0.00035014
         2         1         1         1         3         2     -0.00078679
         2         1         1         1         3         3     -0.00037829
         2         1         2         2         1         1     -0.00061797
         2         1         2         2         1         2     -0.00150177
         2         1         2         2         2         1     -0.00067143
         2         1         2         2         2         2     -0.00196245
         2         1         3         3         1         1     -0.00061797
         2         1         3         3         1         2     -0.00150177
         2         1         3         3         2         1     -0.00067143
         2         1         3         3         2         2     -0.00196245
         2         1         5         5         1         1      0.00025741
         2         1         5         5         1         2     -0.00029050
         2         1         5         5         1         3     -0.00054930
         2         1         5         5         1         4     -0.00087759
         2         1         5         5         2         1     -0.00046228
         2         1         5         5         2         2      0.00052610
         2         1         5         5         2         3      0.00016795
         2         1         5         5         2         4      0.00054110
         2         1         5         5         3         1     -0.00014837
         2         1         5         5         3         2      0.00021738
         2         1         5         5         3         3     -0.00085929
         2         1         5         5         3         4     -0.00095757
         2         1         5         5         4         1     -0.00032585
         2         1         5         5         4         2      0.00038646
         2         1         5         5         4         3     -0.00086563
         2         1         5         5         4         4     -0.00067614
         2         1         6         6         1         1     -0.00016171
         2         1         6         6         1         2     -0.00092572
         2         1         6         6         2         1     -0.00033817
         2         1         6         6         2         2     -0.00210053
         2         1         7         7         1         1     -0.00016171
         2         1         7         7         1         2     -0.00092572
         2         1         7         7         2         1     -0.00033817
         2         1         7         7         2         2     -0.00210053
         2         2         1         1         1         1     -0.07041605
         2         2         1         1         1         2      0.05656668
         2         2         1         1         1         3      0.00161813
         2         2         1         1         2         1      0.05656668
         2         2         1         1         2         2     -0.05424092
         2         2         1         1         2         3      0.00310690
         2         2         1         1         3         1      0.00161813
         2         2         1         1         3         2      0.00310690
         2         2         1         1         3         3     -0.00431446
         2         2         2         2         1         1     -0.14245779
         2         2         2         2         1         2     -0.06913500
         2         2         2         2         2         1     -0.06913500
         2         2         2         2         2         2     -0.03663560
         2         2         3         3         1         1     -0.14245779
         2         2         3         3         1         2     -0.06913500
         2         2         3         3         2         1     -0.06913500
         2         2         3         3         2         2     -0.03663560
         2         2         5         5         1         1     -0.10484563
         2         2         5         5         1         2      0.06195657
         2         2         5         5         1         3     -0.00403348
         2         2         5         5         1         4      0.02555697
         2         2         5         5         2         1      0.06195657
         2         2         5         5         2         2     -0.03951085
         2         2         5         5         2         3      0.00233265
         2         2         5         5         2         4     -0.01829171
         2         2         5         5         3         1     -0.00403348
         2         2         5         5         3         2      0.00233265
         2         2         5         5         3         3      0.00006558
         2         2         5         5         3         4      0.00114036
         2         2         5         5         4         1      0.02555697
         2         2         5         5         4         2     -0.01829171
         2         2         5         5         4         3      0.00114036
         2         2         5         5         4         4     -0.01158620
         2         2         6         6         1         1      0.00080945
         2         2         6         6         1         2     -0.00095664
         2         2         6         6         2         1     -0.00095664
         2         2         6         6         2         2     -0.00303753
         2         2         7         7         1         1      0.00080945
         2         2         7         7         1         2     -0.00095664
         2         2         7         7         2         1     -0.00095664
         2         2         7         7         2         2     -0.00303753
         3         3         1         1         1         1     -0.00001277
         3         3         1         1         1         2      0.00020240
         3         3         1         1         1         3      0.00007858
         3         3         1         1         2         1      0.00020240
         3         3         1         1         2         2     -0.00065078
         3         3         1         1         2         3     -0.00036938
         3         3         1         1         3         1      0.00007858
         3         3         1         1         3         2     -0.00036938
         3         3         1         1         3         3     -0.00065807
         3         3         2         2         1         1      0.00016655
         3         3         2         2         1         2     -0.00014331
         3         3         2         2         2         1     -0.00014331
         3         3         2         2         2         2     -0.00091578
         3         3         3         3         1         1      0.00016655
         3         3         3         3         1         2     -0.00014331
         3         3         3         3         2         1     -0.00014331
         3         3         3         3         2         2     -0.00091578
         3         3         5         5         1         1     -0.00044299
         3         3         5         5         1         2      0.00076215
         3         3         5         5         1         3     -0.00023339
         3         3         5         5         1         4     -0.00002777
         3         3         5         5         2         1      0.00076215
         3         3         5         5         2         2     -0.00113806
         3         3         5         5         2         3      0.00034419
         3         3         5         5         2         4      0.00005509
         3         3         5         5         3         1     -0.00023339
         3         3         5         5         3         2      0.00034419
         3         3         5         5         3         3     -0.00085149
         3         3         5         5         3         4     -0.00086617
         3         3         5         5         4         1     -0.00002777
         3         3         5         5         4         2      0.00005509
         3         3         5         5         4         3     -0.00086617
         3         3         5         5         4         4     -0.00137625
         3         3         6         6         1         1     -0.00001502
         3         3         6         6         1         2     -0.00014993
         3         3         6         6         2         1     -0.00014993
         3         3         6         6         2         2     -0.00139149
         3         3         7         7         1         1     -0.00001502
         3         3         7         7         1         2     -0.00014993
         3         3         7         7         2         1     -0.00014993
         3         3         7         7         2         2     -0.00139149
         3         1         1         5         1         1      0.00009569
         3         1         1         5         1         2     -0.00011705
         3         1         1         5         1         3     -0.00023468
         3         1         1         5         1         4     -0.00036823
         3         1         1         5         2         1     -0.00001596
         3         1         1         5         2         2     -0.00000358
         3         1         1         5         2         3      0.00066625
         3         1         1         5         2         4      0.00096029
         3         1         1         5         3         1      0.00048794
         3         1         1         5         3         2     -0.00068404
         3         1         1         5         3         3      0.00061827
         3         1         1         5         3         4      0.00041126
         3         1         2         6         1         1     -0.00003081
         3         1         2         6         1         2     -0.00029566
         3         1         2         6         2         1     -0.00012257
         3         1         2         6         2         2     -0.00114401
         3         1         3         7         1         1     -0.00003081
         3         1         3         7         1         2     -0.00029566
         3         1         3         7         2         1     -0.00012257
         3         1         3         7         2         2     -0.00114401
         3         1         5         1         1         1      0.00008692
         3         1         5         1         1         2      0.00000327
         3         1         5         1         1         3      0.00050079
         3         1         5         1         2         1     -0.00010625
         3         1         5         1         2         2     -0.00002732
         3         1         5         1         2         3     -0.00069981
         3         1         5         1         3         1     -0.00026449
         3         1         5         1         3         2      0.00073221
         3         1         5         1         3         3      0.00066009
         3         1         5         1         4         1     -0.00039857
         3         1         5         1         4         2      0.00102784
         3         1         5         1         4         3      0.00045378
         3         1         6         2         1         1     -0.00003380
         3         1         6         2         1         2     -0.00013076
         3         1         6         2         2         1     -0.00031489
         3         1         6         2         2         2     -0.00119615
         3         1         7         3         1         1     -0.00003380
         3         1         7         3         1         2     -0.00013076
         3         1         7         3         2         1     -0.00031489
         3         1         7         3         2         2     -0.00119615
         3         2         1         5         1         1     -0.00039120
         3         2         1         5         1         2      0.00025970
         3         2         1         5         1         3     -0.00033150
         3         2         1         5         1         4     -0.00019793
         3         2         1         5         2         1      0.00081999
         3         2         1         5         2         2     -0.00050553
         3         2         1         5         2         3      0.00082283
         3         2         1         5         2         4      0.00055419
         3         2         1         5         3         1      0.00020421
         3         2         1         5         3         2      0.00012687
         3         2         1         5         3         3      0.00063140
         3         2         1         5         3         4      0.00074609
         3         2         2         6         1         1     -0.00024371
         3         2         2         6         1         2     -0.00049078
         3         2         2         6         2         1     -0.00078917
         3         2         2         6         2         2     -0.00177773
         3         2         3         7         1         1     -0.00024371
         3         2         3         7         1         2     -0.00049078
         3         2         3         7         2         1     -0.00078917
         3         2         3         7         2         2     -0.00177773
         3         2         5         1         1         1     -0.00039433
         3         2         5         1         1         2      0.00053487
         3         2         5         1         1         3     -0.00012008
         3         2         5         1         2         1      0.00048260
         3         2         5         1         2         2     -0.00066114
         3         2         5         1         2         3      0.00008949
         3         2         5         1         3         1     -0.00131807
         3         2         5         1         3         2      0.00166025
         3         2         5         1         3         3      0.00066046
         3         2         5         1         4         1     -0.00131237
         3         2         5         1         4         2      0.00156882
         3         2         5         1         4         3      0.00093917
         3         2         6         2         1         1     -0.00025437
         3         2         6         2         1         2     -0.00033942
         3         2         6         2         2         1     -0.00156270
         3         2         6         2         2         2     -0.00216370
         3         2         7         3         1         1     -0.00025437
         3         2         7         3         1         2     -0.00033942
         3         2         7         3         2         1     -0.00156270
         3         2         7         3         2         2     -0.00216370


 RESULTS
 =======

  Reference energy                    -14.865204848423

  Correlated core orbitals:             1.1       1.5
  Orbital energies:                    -2.4425   -2.4422

  BCCD core-core energy                -0.000304800226
  BCCD core-valence energy             -0.000500602621
  BCCD valence correlation energy      -0.027303629788

  BCCD singlet pair energy             -0.027998190216
  BCCD triplet pair energy             -0.000110842419
  BCCD correlation energy              -0.028109032634

 !BCCD total energy                   -14.893313881058

 Approximate expectation values using Brueckner orbitals

 !BCCD(ref) STATE  1.1 Dipole momen     0.00000000     0.00000000     0.00000000
 Dipole moment /Debye                   0.00000000     0.00000000     0.00000000

 Brueckner orbitals saved on record           2150.2 (orbital set 1)
 Brueckner density (ref) saved on record      2150.2 (density set 1)

 Brueckner orbitals
 ==================

   Orb     Occ           Coefficients

                         1 1s      1 1s      1 1s      1 2pz     1 2pz  

   1.1    2.0000000    0.998709  0.017215 -0.008160 -0.002497  0.001568

   2.1    2.0000000   -0.212557  0.323899  0.483061  0.134548 -0.039839

                         1 1s      1 1s      1 1s      1 2pz     1 2pz  

   1.5    2.0000000    0.999458  0.018694 -0.016713 -0.003233 -0.001583

 Timing summary (sec):

 STEP                 CPU(USER)    SYS     CPU(TOT)    WALL
 Transformation          0.03      0.02      0.05      0.04
 CCSD iterations         0.10      0.03      0.13      0.15

 Program statistics:

 Available memory in ccsd:                39999164
 Min. memory needed in ccsd:                  1955
 Max. memory used in ccsd:                    2057
 Max. memory used in cckext:                 34340 (29 integral passes)



 **********************************************************************************************************************************
 DATASETS  * FILE   NREC   LENGTH (MB)   RECORD NAMES
              1      20       29.98       500      700      610      900      950      970     1000      129      960     1100   
                                          VAR     GEOM    BASINP   SYMINP    ZMAT    AOBASIS   BASIS     P2S    ABASIS      S 
                                         1400     1410     1200     1210     1080     1600     1650     1300     1700     1380   
                                           T        V       H0       H01     AOSYM     SMH    MOLCAS    ERIS     OPER     JKOP   

              2       4        2.74       700     1000      520     2150   
                                         GEOM     BASIS   MCVARS    BCCD   

              3       5       14.77       500      610      700     1000     2100   
                                          VAR    BASINP    GEOM     BASIS     RHF  

 PROGRAMS   *        TOTAL      BCCD       INT   RESTART
 CPU TIMES  *         0.51      0.17      0.17      0.04
 REAL TIME  *         0.71 SEC
 DISK USED  *        49.44 MB
 **********************************************************************************************************************************

 Dump information in style XML to orbitals.xml                                                                    

 Variables will not be exported.
 Molecular orbitals read from record     2150.2  Type=BCCD/BRUECKNER (state 1.1)
 Occupation numbers read from record     2150.2  Type=BCCD/BRUECKNER (state 1.1)

 No orbital energies found for orbital set 0

 No redundancy group numbers found for orbital set 0

 **********************************************************************************************************************************

 BCCD/6-31G energy=    -14.893313881058

            BCCD
    -14.89331388
 **********************************************************************************************************************************
 Molpro calculation terminated
