
 Primary working directories    : /scr/yuriaoto/job.032978/molpro.1sVhuhrYap
 Secondary working directories  : /scr/yuriaoto/job.032978/molpro.1sVhuhrYap
 Wavefunction directory         : /scr/yuriaoto/job.032978/
 Main file repository           : /scr/yuriaoto/job.032978/molpro.1sVhuhrYap/

 id        : yuriaoto

 Nodes             nprocs
 t-rex.ufabc.int.br    1

 Using customized tuning parameters: mindgm=8; mindgv=16; mindgc=1; mindgr=1; noblas=0; minvec=7
 default implementation of scratch files=df  


 Variables initialized (933), CPU time= 0.00 sec
 ***,
 memory,40,m
 gprint,orbital,basis,civector
 gthresh,thrprint=0,printci=0.0
 file,3,wfu.dat,old
 
 {fci
 core,0
 wf,6,1,0;
 }
 Commands  initialized (760), CPU time= 0.01 sec, 617 directives.
 Default parameters read. Elapsed time= 0.04 sec

 Checking input...
 Passed
1


                                         ***  PROGRAM SYSTEM MOLPRO  ***
                                       Copyright, TTI GmbH Stuttgart, 2015
                                    Version 2019.2 linked Abr  7 2019 15:10:35


 **********************************************************************************************************************************
 LABEL *                                                                                 
  64 bit serial version                                                                  DATE: 26-May-21          TIME: 20:31:55  
 **********************************************************************************************************************************

 SHA1:             3a8a58c585c929645742fb5a1b7541a4ad1da699
 **********************************************************************************************************************************


 THRESHOLDS:

 ZERO    =  1.00D-12  ONEINT  =  1.00D-12  TWOINT  =  1.00D-11  PREFAC  =  1.00D-14  XXXXXX  =  1.00D-09  EORDER  =  1.00D-04
 ENERGY  =  0.00D+00  ETEST   =  0.00D+00  EDENS   =  0.00D+00  THRDEDEF=  1.00D-06  GRADIENT=  1.00D-02  STEP    =  1.00D-03
 ORBITAL =  1.00D-05  CIVEC   =  1.00D-05  COEFF   =  1.00D-04  PRINTCI =  0.00D+00  PUNCHCI =  9.90D+01  OPTGRAD =  3.00D-04
 OPTENERG=  1.00D-06  OPTSTEP =  3.00D-04  THRGRAD =  1.00D-10  COMPRESS=  1.00D-11  VARMIN  =  1.00D-07  VARMAX  =  1.00D-03
 THRDOUB =  0.00D+00  THRDIV  =  1.00D-05  THRRED  =  1.00D-07  THRPSP  =  1.00D+00  THRDC   =  1.00D-10  THRCS   =  1.00D-10
 THRNRM  =  1.00D-08  THREQ   =  0.00D+00  THRDE   =  1.00D+00  THRREF  =  1.00D-05  SPARFAC =  1.00D+00  THRDLP  =  1.00D-07
 THRDIA  =  1.00D-10  THRDLS  =  1.00D-07  THRGPS  =  0.00D+00  THRKEX  =  0.00D+00  THRDIS  =  2.00D-01  THRVAR  =  1.00D-10
 THRLOC  =  1.00D-06  THRGAP  =  1.00D-06  THRLOCT = -1.00D+00  THRGAPT = -1.00D+00  THRORB  =  1.00D-06  THRMLTP =  0.00D+00
 THRCPQCI=  1.00D-10  KEXTA   =  0.00D+00  THRCOARS=  0.00D+00  SYMTOL  =  1.00D-06  GRADTOL =  1.00D-06  THROVL  =  1.00D-08
 THRORTH =  1.00D-08  GRID    =  1.00D-06  GRIDMAX =  1.00D-03  DTMAX   =  0.00D+00  THROCCDE=  1.00D-01  THROCCDE=  1.00D-01
 THRPRINT=  0.00D+00


 Variable memory set to   40000000 words,  buffer space 



 Permanent file  3  wfu.dat  assigned.  Implementation=df    Size= 14.08 MB


 PROGRAM * RESTART 


 Reading variables from file 3

 _FNUC           =      0.00000000
 _BASIS          =    6-31G
 _NELEC          =      6.00000000
 _PROGRAM        =    RHF-SCF
 _DMX_SCF        =      0.00000000
 _DMY_SCF        =      0.00000000
 _DMZ_SCF        =      0.00000000
 _HOMO           =      2.10000000
 _EHOMO          =     -0.17851736
 _LUMO           =      2.50000000
 _ELUMO          =      0.01777251
 _ENERGY         =    -14.86544674
 _ENERGY_METHOD  =    RHF
 _ENERGY_BASIS   =    6-31G
 _ENUC           =      1.80000000
 _EPS1(1:5)      =     -2.44083670    -0.17851736     0.06347959     0.19419351     0.22544151
 _EPS2(1:2)      =      0.04562594     0.20818036
 _EPS3(1:2)      =      0.04562594     0.20818036
 _EPS5(1:5)      =     -2.44048575     0.01777251     0.13971385     0.26575149     0.54809025
 _EPS6(1:2)      =      0.09250729     0.27049360
 _EPS7(1:2)      =      0.09250729     0.27049360
 _IPROC_MPP      =      0.00000000
 _IPROC_MPPX     =      0.00000000
 _ORBITAL        =   2100.30000000
 _STATUS         =      1.00000000
 _DATE           =    21-Oct-19
 _LASTORB        =    RHF
 _OUTPUT         =    /scr/yuriaoto/job.022400/RHF.xml
 _PGROUP         =    D2h 
 _TIME           =    10:18:24
 R               =      5.00000000

 Geometry written to block  1 of record 700


 **********************************************************************************************************************************
 DATASETS  * FILE   NREC   LENGTH (MB)   RECORD NAMES
              3       5       14.77       500      610      700     1000     2100   
                                          VAR    BASINP    GEOM     BASIS     RHF  

 PROGRAMS   *        TOTAL   RESTART
 CPU TIMES  *         0.14      0.01
 REAL TIME  *         0.17 SEC
 DISK USED  *        26.84 MB
 **********************************************************************************************************************************


 Recomputing integrals since basis changed


 Using spherical harmonics

 Library entry LI     S 6-31G                selected for orbital group  1
 Library entry LI     P 6-31G                selected for orbital group  1


 PROGRAM * SEWARD (Integral evaluation for generally contracted gaussian basis sets)     Author: Roland Lindh, 1990

 Geometry written to block  1 of record 700

 Orientation using atomic masses  
 Molecule type: Linear
 User-specified symmetry elements: X,Y,Z
 Symmetry elements: X,Y,Z
 Rotational constants:      20.8009354     20.8009354      0.0000000 GHz  (calculated with average atomic masses)

 Point group  D2h 



 ATOMIC COORDINATES

 NR  ATOM    CHARGE       X              Y              Z

   1  LI1     3.00    0.000000000    0.000000000   -2.500000000
   2  LI2     3.00    0.000000000    0.000000000    2.500000000

 Bond lengths in Bohr (Angstrom)

 1-2  5.000000000
     ( 2.645886055)


 BASIS DATA

   Nr Sym  Nuc  Type         Exponents   Contraction coefficients

    1.1 Ag    1  1s         642.418910     0.002143
              2  1s          96.798515     0.016209
                             22.091121     0.077316
                              6.201070     0.245786
                              1.935118     0.470189
                              0.636736     0.345471
    2.1 Ag    1  1s           2.324918    -0.035092
              2  1s           0.632430    -0.191233
                              0.079053     1.083988
    3.1 Ag    1  1s           0.035962     1.000000
              2  1s    
    4.1 Ag    1  2pz          2.324918     0.008942
              2 -2pz          0.632430     0.141009
                              0.079053     0.945364
    5.1 Ag    1  2pz          0.035962     1.000000
              2 -2pz   
    1.2 B3u   1  2px          2.324918     0.008942
              2  2px          0.632430     0.141009
                              0.079053     0.945364
    2.2 B3u   1  2px          0.035962     1.000000
              2  2px   
    1.3 B2u   1  2py          2.324918     0.008942
              2  2py          0.632430     0.141009
                              0.079053     0.945364
    2.3 B2u   1  2py          0.035962     1.000000
              2  2py   
    1.5 B1u   1  1s         642.418910     0.002143
              2 -1s          96.798515     0.016209
                             22.091121     0.077316
                              6.201070     0.245786
                              1.935118     0.470189
                              0.636736     0.345471
    2.5 B1u   1  1s           2.324918    -0.035092
              2 -1s           0.632430    -0.191233
                              0.079053     1.083988
    3.5 B1u   1  1s           0.035962     1.000000
              2 -1s    
    4.5 B1u   1  2pz          2.324918     0.008942
              2  2pz          0.632430     0.141009
                              0.079053     0.945364
    5.5 B1u   1  2pz          0.035962     1.000000
              2  2pz   
    1.6 B2g   1  2px          2.324918     0.008942
              2 -2px          0.632430     0.141009
                              0.079053     0.945364
    2.6 B2g   1  2px          0.035962     1.000000
              2 -2px   
    1.7 B3g   1  2py          2.324918     0.008942
              2 -2py          0.632430     0.141009
                              0.079053     0.945364
    2.7 B3g   1  2py          0.035962     1.000000
              2 -2py   

 NUCLEAR CHARGE:                    6
 NUMBER OF PRIMITIVE AOS:          44
 NUMBER OF SYMMETRY AOS:           44
 NUMBER OF CONTRACTIONS:           18   (    5Ag  +    2B3u +    2B2u +    0B1g +    5B1u +    2B2g +    2B3g +    0Au  )
 NUMBER OF CORE ORBITALS:           2   (    1Ag  +    0B3u +    0B2u +    0B1g +    1B1u +    0B2g +    0B3g +    0Au  )
 NUMBER OF VALENCE ORBITALS:        8   (    2Ag  +    1B3u +    1B2u +    0B1g +    2B1u +    1B2g +    1B3g +    0Au  )


 NUCLEAR REPULSION ENERGY    1.80000000

 Eigenvalues of metric

         1 0.103E+00 0.180E+00 0.946E+00 0.140E+01 0.370E+01
         2 0.252E+00 0.273E+01
         3 0.252E+00 0.273E+01
         5 0.422E-02 0.112E+00 0.166E+00 0.962E+00 0.242E+01
         6 0.108E+00 0.907E+00
         7 0.108E+00 0.907E+00


 Contracted 2-electron integrals neglected if value below      1.0D-11
 AO integral compression algorithm  1   Integral accuracy      1.0D-11

     0.262 MB (compressed) written to integral file (100.0%)


 NUMBER OF SORTED TWO-ELECTRON INTEGRALS:       2829.     BUFFER LENGTH:  32768
 NUMBER OF SEGMENTS:   1  SEGMENT LENGTH:       2829      RECORD LENGTH: 524288

 Memory used in sort:       0.56 MW

 SORT1 READ        8184. AND WROTE        2829. INTEGRALS IN      1 RECORDS. CPU TIME:     0.00 SEC, REAL TIME:     0.00 SEC
 SORT2 READ        2829. AND WROTE        2829. INTEGRALS IN      1 RECORDS. CPU TIME:     0.00 SEC, REAL TIME:     0.01 SEC

 FILE SIZES:   FILE 1:    30.2 MBYTE,  FILE 4:     4.2 MBYTE,   TOTAL:     34.4 MBYTE

 OPERATOR DM      FOR CENTER  0  COORDINATES:    0.000000    0.000000    0.000000


 **********************************************************************************************************************************
 DATASETS  * FILE   NREC   LENGTH (MB)   RECORD NAMES
              1      19       29.97       500      700      610      900      950      970     1000      129      960     1100   
                                          VAR     GEOM    BASINP   SYMINP    ZMAT    AOBASIS   BASIS     P2S    ABASIS      S 
                                         1400     1410     1200     1210     1080     1600     1650     1300     1700   
                                           T        V       H0       H01     AOSYM     SMH    MOLCAS    ERIS     OPER   

              3       5       14.77       500      610      700     1000     2100   
                                          VAR    BASINP    GEOM     BASIS     RHF  

 PROGRAMS   *        TOTAL       INT   RESTART
 CPU TIMES  *         0.36      0.21      0.01
 REAL TIME  *         0.49 SEC
 DISK USED  *        49.44 MB
 **********************************************************************************************************************************


 PROGRAM * FCI (Full CI)     Author: P.J. Knowles, 1984


 Molecular orbitals read from record     2100.3  Type=RHF/CANONICAL (state 1.1)

 Frozen orbitals:              0 (  0  0  0  0  0  0  0  0)
 Active orbitals:             18 (  5  2  2  0  5  2  2  0)
 Active electrons:             6
 Spin quantum number:          0.0
 Orbital pairs:                    42      20      20       8      33      20      20       8
 Strings:                         120     104     104      80     120     104     104      80
                                  120     104     104      80     120     104     104      80
 Determinants:                          84864           83200           83200           81664
                                        84864           83200           83200           81664

 Load integrals                1.1 sec
 Transform integrals           1.1 sec
 Storage for integrals:           5247
 Remaining memory:            39992981

 Core energy:               1.80000000
 Run Hamiltonian processor DAVIDSON
 Symmetry:                   1
 Trial vector:                  0.00
 Result vector:                 0.00
 Maximum iterations:           90
 Convergence threshold:         0.0000100
 RHS vector:                    0.00
 Hamiltonian shift:             0.0000000
 Output threshold:              0.0000000
 Options:                        0
 Number of roots:             1

 Hamiltonian diagonaliser entered at time      1.14

 Initial configuration generated:
   42433      1.0000000    -14.8654467

 It  Tr    CPU  Convergence   Energy       Pop     dE(next)

  1   1    1.3  1.00000000   -14.86544674
                                           0.00 -0.03108591 -0.03106773
  2   1    1.3  0.27302507   -14.89146400
                                           0.01 -0.00181124 -0.00179656
  3   1    1.4  0.06720665   -14.89315913
                                           0.02 -0.00020873 -0.00020669
  4   1    1.5  0.02215452   -14.89334553
                                           0.03 -0.00001778 -0.00001751
  5   1    1.6  0.00623198   -14.89336059
                                           0.05 -0.00000129 -0.00000125
  6   1    1.6  0.00198705   -14.89336200
                                           0.10 -0.00000016 -0.00000016
  7   1    1.7  0.00059535   -14.89336218
                                           0.14 -0.00000002 -0.00000002
  8   1    1.9  0.00018146   -14.89336220
                                           0.20 -0.00000000 -0.00000000
  9   1    2.0  0.00004860   -14.89336220
                                           0.21 -0.00000000 -0.00000000
 10   1    2.1  0.00001098   -14.89336220
                                           0.22 -0.00000000 -0.00000000
 11   1    2.2  0.00000388   -14.89336220


RESULTS FOR STATE  1.1
=====================

 Correlation energy                    -0.027915463040
 !FCI STATE  1.1 Energy               -14.893362202227
 CI Vector (threshold=  0.00    )
      -0.000006848101  1  2  3  1  2  3
       0.000189960427  1  2  3  1  2  4
       0.000073495673  1  2  3  1  2  5
       0.000009471921  1  2  3  1  3  4
      -0.000034617079  1  2  3  1  3  5
       0.000024415586  1  2  3  1  4  5
       0.000002899233  1  2  3  1  6  7
       0.000002899233  1  2  3  1  8  9
       0.000366606024  1  2  3  1 10 11
      -0.000246059497  1  2  3  1 10 12
       0.000315032901  1  2  3  1 10 13
       0.000187515035  1  2  3  1 10 14
       0.000003516235  1  2  3  1 11 12
      -0.000002866263  1  2  3  1 11 13
      -0.000003698545  1  2  3  1 11 14
      -0.000001017886  1  2  3  1 12 13
       0.000001770912  1  2  3  1 12 14
      -0.000000294210  1  2  3  1 13 14
       0.000000395923  1  2  3  1 15 16
       0.000000395923  1  2  3  1 17 18
       0.000000000000  1  2  3  2  3  4
       0.000000498661  1  2  3  2  3  5
      -0.000001094845  1  2  3  2  4  5
      -0.000000300823  1  2  3  2  6  7
      -0.000000300823  1  2  3  2  8  9
       0.000093950850  1  2  3  2 10 11
      -0.000115894062  1  2  3  2 10 12
      -0.000224248457  1  2  3  2 10 13
      -0.000353653882  1  2  3  2 10 14
      -0.000000039357  1  2  3  2 11 12
      -0.000000509746  1  2  3  2 11 13
      -0.000000530088  1  2  3  2 11 14
       0.000000958529  1  2  3  2 12 13
       0.000001043702  1  2  3  2 12 14
      -0.000000118528  1  2  3  2 13 14
      -0.000000149448  1  2  3  2 15 16
      -0.000000149448  1  2  3  2 17 18
      -0.000000012960  1  2  3  3  4  5
      -0.000000085718  1  2  3  3  6  7
      -0.000000085718  1  2  3  3  8  9
       0.000060592033  1  2  3  3 10 11
      -0.000081454243  1  2  3  3 10 12
       0.000002319011  1  2  3  3 10 13
      -0.000027442933  1  2  3  3 10 14
       0.000000086542  1  2  3  3 11 12
       0.000000022297  1  2  3  3 11 13
       0.000000033912  1  2  3  3 11 14
      -0.000000059411  1  2  3  3 12 13
      -0.000000040327  1  2  3  3 12 14
       0.000000081966  1  2  3  3 13 14
      -0.000000064835  1  2  3  3 15 16
      -0.000000064835  1  2  3  3 17 18
       0.000000216391  1  2  3  4  6  7
       0.000000216391  1  2  3  4  8  9
      -0.000050731036  1  2  3  4 10 11
       0.000065713429  1  2  3  4 10 12
      -0.000002988149  1  2  3  4 10 13
       0.000020413716  1  2  3  4 10 14
      -0.000000199154  1  2  3  4 11 12
      -0.000000086278  1  2  3  4 11 13
      -0.000000073591  1  2  3  4 11 14
       0.000000284194  1  2  3  4 12 13
       0.000000215559  1  2  3  4 12 14
      -0.000000142665  1  2  3  4 13 14
       0.000000149097  1  2  3  4 15 16
       0.000000149097  1  2  3  4 17 18
       0.000000024754  1  2  3  5  6  7
       0.000000024754  1  2  3  5  8  9
      -0.000003673195  1  2  3  5 10 11
      -0.000000262780  1  2  3  5 10 12
      -0.000006094040  1  2  3  5 10 13
      -0.000006318331  1  2  3  5 10 14
      -0.000000154736  1  2  3  5 11 12
       0.000000259517  1  2  3  5 11 13
       0.000000343968  1  2  3  5 11 14
      -0.000000083909  1  2  3  5 12 13
      -0.000000206836  1  2  3  5 12 14
       0.000000142319  1  2  3  5 13 14
       0.000000054525  1  2  3  5 15 16
       0.000000054525  1  2  3  5 17 18
       0.000000719722  1  2  3  6 10 15
       0.000004388559  1  2  3  6 10 16
       0.000000020229  1  2  3  6 11 15
       0.000000175049  1  2  3  6 11 16
      -0.000000027376  1  2  3  6 12 15
      -0.000000212270  1  2  3  6 12 16
       0.000000000000  1  2  3  6 13 15
      -0.000000209732  1  2  3  6 13 16
      -0.000000009703  1  2  3  6 14 15
      -0.000000381264  1  2  3  6 14 16
       0.000000347868  1  2  3  7 10 15
       0.000003574757  1  2  3  7 10 16
       0.000000000000  1  2  3  7 11 15
       0.000000137912  1  2  3  7 11 16
      -0.000000009354  1  2  3  7 12 15
      -0.000000182038  1  2  3  7 12 16
       0.000000095915  1  2  3  7 13 15
      -0.000000065778  1  2  3  7 13 16
       0.000000134598  1  2  3  7 14 15
      -0.000000158730  1  2  3  7 14 16
       0.000000719722  1  2  3  8 10 17
       0.000004388559  1  2  3  8 10 18
       0.000000020229  1  2  3  8 11 17
       0.000000175049  1  2  3  8 11 18
      -0.000000027376  1  2  3  8 12 17
      -0.000000212270  1  2  3  8 12 18
       0.000000000000  1  2  3  8 13 17
      -0.000000209732  1  2  3  8 13 18
      -0.000000009703  1  2  3  8 14 17
      -0.000000381264  1  2  3  8 14 18
       0.000000347868  1  2  3  9 10 17
       0.000003574757  1  2  3  9 10 18
       0.000000000000  1  2  3  9 11 17
       0.000000137912  1  2  3  9 11 18
      -0.000000009354  1  2  3  9 12 17
      -0.000000182038  1  2  3  9 12 18
       0.000000095915  1  2  3  9 13 17
      -0.000000065778  1  2  3  9 13 18
       0.000000134598  1  2  3  9 14 17
      -0.000000158730  1  2  3  9 14 18
       0.000189960427  1  2  4  1  2  3
      -0.000618580168  1  2  4  1  2  4
      -0.000352247913  1  2  4  1  2  5
       0.000001282846  1  2  4  1  3  4
       0.000021307894  1  2  4  1  3  5
      -0.000005694522  1  2  4  1  4  5
      -0.000002385445  1  2  4  1  6  7
      -0.000002385445  1  2  4  1  8  9
      -0.000788553562  1  2  4  1 10 11
       0.000485872419  1  2  4  1 10 12
      -0.000790277107  1  2  4  1 10 13
      -0.000529133504  1  2  4  1 10 14
      -0.000006847678  1  2  4  1 11 12
      -0.000004597609  1  2  4  1 11 13
      -0.000007752874  1  2  4  1 11 14
       0.000010211952  1  2  4  1 12 13
       0.000010362757  1  2  4  1 12 14
      -0.000007098380  1  2  4  1 13 14
      -0.000000042726  1  2  4  1 15 16
      -0.000000042726  1  2  4  1 17 18
      -0.000000108194  1  2  4  2  3  4
      -0.000000665639  1  2  4  2  3  5
       0.000001244943  1  2  4  2  4  5
       0.000000328033  1  2  4  2  6  7
       0.000000328033  1  2  4  2  8  9
      -0.000017759240  1  2  4  2 10 11
       0.000000125580  1  2  4  2 10 12
       0.000636059125  1  2  4  2 10 13
       0.000918153311  1  2  4  2 10 14
       0.000000030595  1  2  4  2 11 12
       0.000000478204  1  2  4  2 11 13
       0.000000380109  1  2  4  2 11 14
      -0.000000859755  1  2  4  2 12 13
      -0.000000799531  1  2  4  2 12 14
       0.000000000000  1  2  4  2 13 14
       0.000000266756  1  2  4  2 15 16
       0.000000266756  1  2  4  2 17 18
      -0.000000116987  1  2  4  3  4  5
       0.000000198587  1  2  4  3  6  7
       0.000000198587  1  2  4  3  8  9
      -0.000040935087  1  2  4  3 10 11
       0.000055672947  1  2  4  3 10 12
      -0.000006994561  1  2  4  3 10 13
       0.000007276229  1  2  4  3 10 14
      -0.000000125486  1  2  4  3 11 12
      -0.000000035200  1  2  4  3 11 13
      -0.000000023242  1  2  4  3 11 14
       0.000000241757  1  2  4  3 12 13
       0.000000227611  1  2  4  3 12 14
      -0.000000249071  1  2  4  3 13 14
       0.000000153942  1  2  4  3 15 16
       0.000000153942  1  2  4  3 17 18
      -0.000000520376  1  2  4  4  6  7
      -0.000000520376  1  2  4  4  8  9
       0.000035233864  1  2  4  4 10 11
      -0.000047207502  1  2  4  4 10 12
       0.000002501455  1  2  4  4 10 13
      -0.000008513649  1  2  4  4 10 14
       0.000000287910  1  2  4  4 11 12
      -0.000000171029  1  2  4  4 11 13
      -0.000000296465  1  2  4  4 11 14
      -0.000000381865  1  2  4  4 12 13
      -0.000000249709  1  2  4  4 12 14
       0.000000201210  1  2  4  4 13 14
      -0.000000395283  1  2  4  4 15 16
      -0.000000395283  1  2  4  4 17 18
      -0.000000264934  1  2  4  5  6  7
      -0.000000264934  1  2  4  5  8  9
      -0.000001446582  1  2  4  5 10 11
       0.000008512813  1  2  4  5 10 12
       0.000018211565  1  2  4  5 10 13
       0.000028625605  1  2  4  5 10 14
       0.000000205182  1  2  4  5 11 12
      -0.000000443421  1  2  4  5 11 13
      -0.000000613405  1  2  4  5 11 14
       0.000000009633  1  2  4  5 12 13
       0.000000180217  1  2  4  5 12 14
      -0.000000192550  1  2  4  5 13 14
      -0.000000203058  1  2  4  5 15 16
      -0.000000203058  1  2  4  5 17 18
      -0.000000411755  1  2  4  6 10 15
      -0.000003632162  1  2  4  6 10 16
       0.000000000000  1  2  4  6 11 15
      -0.000000034654  1  2  4  6 11 16
       0.000000000000  1  2  4  6 12 15
       0.000000000000  1  2  4  6 12 16
       0.000000000000  1  2  4  6 13 15
       0.000000631786  1  2  4  6 13 16
       0.000000008883  1  2  4  6 14 15
       0.000000937494  1  2  4  6 14 16
      -0.000000460999  1  2  4  7 10 15
      -0.000003269057  1  2  4  7 10 16
      -0.000000018391  1  2  4  7 11 15
      -0.000000085356  1  2  4  7 11 16
       0.000000038759  1  2  4  7 12 15
       0.000000085378  1  2  4  7 12 16
      -0.000000275099  1  2  4  7 13 15
       0.000000206324  1  2  4  7 13 16
      -0.000000390825  1  2  4  7 14 15
       0.000000341938  1  2  4  7 14 16
      -0.000000411755  1  2  4  8 10 17
      -0.000003632162  1  2  4  8 10 18
       0.000000000000  1  2  4  8 11 17
      -0.000000034654  1  2  4  8 11 18
       0.000000000000  1  2  4  8 12 17
       0.000000000000  1  2  4  8 12 18
       0.000000000000  1  2  4  8 13 17
       0.000000631786  1  2  4  8 13 18
       0.000000008883  1  2  4  8 14 17
       0.000000937494  1  2  4  8 14 18
      -0.000000460999  1  2  4  9 10 17
      -0.000003269057  1  2  4  9 10 18
      -0.000000018391  1  2  4  9 11 17
      -0.000000085356  1  2  4  9 11 18
       0.000000038759  1  2  4  9 12 17
       0.000000085378  1  2  4  9 12 18
      -0.000000275099  1  2  4  9 13 17
       0.000000206324  1  2  4  9 13 18
      -0.000000390825  1  2  4  9 14 17
       0.000000341938  1  2  4  9 14 18
       0.000073495673  1  2  5  1  2  3
      -0.000352247913  1  2  5  1  2  4
      -0.000628604038  1  2  5  1  2  5
      -0.000003113188  1  2  5  1  3  4
      -0.000005329501  1  2  5  1  3  5
       0.000019320345  1  2  5  1  4  5
       0.000006756201  1  2  5  1  6  7
       0.000006756201  1  2  5  1  8  9
      -0.000202037531  1  2  5  1 10 11
      -0.000117887836  1  2  5  1 10 12
      -0.000607653263  1  2  5  1 10 13
      -0.000714377444  1  2  5  1 10 14
      -0.000004876023  1  2  5  1 11 12
       0.000000362069  1  2  5  1 11 13
      -0.000003039983  1  2  5  1 11 14
       0.000009529221  1  2  5  1 12 13
       0.000012257015  1  2  5  1 12 14
      -0.000005145763  1  2  5  1 13 14
       0.000004824465  1  2  5  1 15 16
       0.000004824465  1  2  5  1 17 18
       0.000000425744  1  2  5  2  3  4
       0.000000369134  1  2  5  2  3  5
      -0.000000064348  1  2  5  2  4  5
      -0.000000454601  1  2  5  2  6  7
      -0.000000454601  1  2  5  2  8  9
       0.000468303500  1  2  5  2 10 11
      -0.000654821100  1  2  5  2 10 12
       0.000591379084  1  2  5  2 10 13
       0.000392393813  1  2  5  2 10 14
       0.000000054642  1  2  5  2 11 12
      -0.000000542644  1  2  5  2 11 13
      -0.000000722417  1  2  5  2 11 14
       0.000000098151  1  2  5  2 12 13
       0.000000212386  1  2  5  2 12 14
      -0.000000403535  1  2  5  2 13 14
      -0.000000340780  1  2  5  2 15 16
      -0.000000340780  1  2  5  2 17 18
       0.000000220838  1  2  5  3  4  5
       0.000000043799  1  2  5  3  6  7
       0.000000043799  1  2  5  3  8  9
      -0.000001217003  1  2  5  3 10 11
      -0.000002233816  1  2  5  3 10 12
       0.000004469807  1  2  5  3 10 13
       0.000003989175  1  2  5  3 10 14
      -0.000000191676  1  2  5  3 11 12
       0.000000483081  1  2  5  3 11 13
       0.000000549769  1  2  5  3 11 14
      -0.000000548537  1  2  5  3 12 13
      -0.000000732273  1  2  5  3 12 14
       0.000000292406  1  2  5  3 13 14
       0.000000043356  1  2  5  3 15 16
       0.000000043356  1  2  5  3 17 18
      -0.000000244055  1  2  5  4  6  7
      -0.000000244055  1  2  5  4  8  9
      -0.000006564135  1  2  5  4 10 11
       0.000017489338  1  2  5  4 10 12
      -0.000007434505  1  2  5  4 10 13
      -0.000000116338  1  2  5  4 10 14
       0.000000471443  1  2  5  4 11 12
      -0.000000639870  1  2  5  4 11 13
      -0.000000671618  1  2  5  4 11 14
       0.000000424683  1  2  5  4 12 13
       0.000000692613  1  2  5  4 12 14
      -0.000000296170  1  2  5  4 13 14
      -0.000000198592  1  2  5  4 15 16
      -0.000000198592  1  2  5  4 17 18
      -0.000000549805  1  2  5  5  6  7
      -0.000000549805  1  2  5  5  8  9
       0.000016310373  1  2  5  5 10 11
      -0.000012652884  1  2  5  5 10 12
       0.000015943934  1  2  5  5 10 13
       0.000013364122  1  2  5  5 10 14
       0.000000426077  1  2  5  5 11 12
      -0.000000596727  1  2  5  5 11 13
      -0.000000722927  1  2  5  5 11 14
       0.000000063509  1  2  5  5 12 13
       0.000000349672  1  2  5  5 12 14
      -0.000000221675  1  2  5  5 13 14
      -0.000000372140  1  2  5  5 15 16
      -0.000000372140  1  2  5  5 17 18
       0.000000538524  1  2  5  6 10 15
       0.000008997678  1  2  5  6 10 16
       0.000000022821  1  2  5  6 11 15
       0.000000580130  1  2  5  6 11 16
      -0.000000032867  1  2  5  6 12 15
      -0.000000812868  1  2  5  6 12 16
       0.000000000000  1  2  5  6 13 15
       0.000000609168  1  2  5  6 13 16
       0.000000000000  1  2  5  6 14 15
       0.000000347229  1  2  5  6 14 16
      -0.000003357871  1  2  5  7 10 15
       0.000002750484  1  2  5  7 10 16
      -0.000000195301  1  2  5  7 11 15
       0.000000228973  1  2  5  7 11 16
       0.000000268666  1  2  5  7 12 15
      -0.000000337181  1  2  5  7 12 16
      -0.000000261052  1  2  5  7 13 15
       0.000000202112  1  2  5  7 13 16
      -0.000000182433  1  2  5  7 14 15
       0.000000089694  1  2  5  7 14 16
       0.000000538524  1  2  5  8 10 17
       0.000008997678  1  2  5  8 10 18
       0.000000022821  1  2  5  8 11 17
       0.000000580130  1  2  5  8 11 18
      -0.000000032867  1  2  5  8 12 17
      -0.000000812868  1  2  5  8 12 18
       0.000000000000  1  2  5  8 13 17
       0.000000609168  1  2  5  8 13 18
       0.000000000000  1  2  5  8 14 17
       0.000000347229  1  2  5  8 14 18
      -0.000003357871  1  2  5  9 10 17
       0.000002750484  1  2  5  9 10 18
      -0.000000195301  1  2  5  9 11 17
       0.000000228973  1  2  5  9 11 18
       0.000000268666  1  2  5  9 12 17
      -0.000000337181  1  2  5  9 12 18
      -0.000000261052  1  2  5  9 13 17
       0.000000202112  1  2  5  9 13 18
      -0.000000182433  1  2  5  9 14 17
       0.000000089694  1  2  5  9 14 18
       0.000009471921  1  3  4  1  2  3
       0.000001282846  1  3  4  1  2  4
      -0.000003113188  1  3  4  1  2  5
       0.000023194177  1  3  4  1  3  4
       0.000016663561  1  3  4  1  3  5
      -0.000012202336  1  3  4  1  4  5
       0.000000503769  1  3  4  1  6  7
       0.000000503769  1  3  4  1  8  9
      -0.000135437082  1  3  4  1 10 11
       0.000067553355  1  3  4  1 10 12
      -0.000039255649  1  3  4  1 10 13
       0.000008376144  1  3  4  1 10 14
      -0.000001280098  1  3  4  1 11 12
      -0.000000399052  1  3  4  1 11 13
      -0.000001280805  1  3  4  1 11 14
       0.000000418733  1  3  4  1 12 13
       0.000000470424  1  3  4  1 12 14
      -0.000000269748  1  3  4  1 13 14
       0.000000154928  1  3  4  1 15 16
       0.000000154928  1  3  4  1 17 18
      -0.000000065707  1  3  4  2  3  4
      -0.000000023164  1  3  4  2  3  5
      -0.000000054685  1  3  4  2  4  5
      -0.000000034726  1  3  4  2  6  7
      -0.000000034726  1  3  4  2  8  9
       0.000009352719  1  3  4  2 10 11
      -0.000009482133  1  3  4  2 10 12
      -0.000003898784  1  3  4  2 10 13
      -0.000012743519  1  3  4  2 10 14
       0.000000000000  1  3  4  2 11 12
       0.000000021437  1  3  4  2 11 13
      -0.000000017647  1  3  4  2 11 14
      -0.000000027513  1  3  4  2 12 13
       0.000000026086  1  3  4  2 12 14
      -0.000000129889  1  3  4  2 13 14
       0.000000000000  1  3  4  2 15 16
       0.000000000000  1  3  4  2 17 18
      -0.000000014868  1  3  4  3  4  5
      -0.000000015353  1  3  4  3  6  7
      -0.000000015353  1  3  4  3  8  9
      -0.000001105869  1  3  4  3 10 11
       0.000003250527  1  3  4  3 10 12
      -0.000029607465  1  3  4  3 10 13
      -0.000043343926  1  3  4  3 10 14
      -0.000000011955  1  3  4  3 11 12
       0.000000104968  1  3  4  3 11 13
       0.000000144751  1  3  4  3 11 14
      -0.000000075373  1  3  4  3 12 13
      -0.000000098637  1  3  4  3 12 14
       0.000000043847  1  3  4  3 13 14
       0.000000000000  1  3  4  3 15 16
       0.000000000000  1  3  4  3 17 18
       0.000000033332  1  3  4  4  6  7
       0.000000033332  1  3  4  4  8  9
       0.000001636406  1  3  4  4 10 11
      -0.000004133624  1  3  4  4 10 12
       0.000021739290  1  3  4  4 10 13
       0.000031282017  1  3  4  4 10 14
       0.000000030983  1  3  4  4 11 12
      -0.000000261222  1  3  4  4 11 13
      -0.000000356646  1  3  4  4 11 14
       0.000000169877  1  3  4  4 12 13
       0.000000244242  1  3  4  4 12 14
      -0.000000157106  1  3  4  4 13 14
      -0.000000010621  1  3  4  4 15 16
      -0.000000010621  1  3  4  4 17 18
       0.000000000000  1  3  4  5  6  7
       0.000000000000  1  3  4  5  8  9
       0.000000512365  1  3  4  5 10 11
       0.000000137356  1  3  4  5 10 12
       0.000001261352  1  3  4  5 10 13
       0.000001812351  1  3  4  5 10 14
       0.000000023890  1  3  4  5 11 12
      -0.000000164708  1  3  4  5 11 13
      -0.000000227783  1  3  4  5 11 14
       0.000000092276  1  3  4  5 12 13
       0.000000150005  1  3  4  5 12 14
      -0.000000094031  1  3  4  5 13 14
      -0.000000011588  1  3  4  5 15 16
      -0.000000011588  1  3  4  5 17 18
       0.000000176930  1  3  4  6 10 15
       0.000000743301  1  3  4  6 10 16
       0.000000000000  1  3  4  6 11 15
       0.000000014730  1  3  4  6 11 16
       0.000000000000  1  3  4  6 12 15
      -0.000000017782  1  3  4  6 12 16
      -0.000000010087  1  3  4  6 13 15
      -0.000000041229  1  3  4  6 13 16
      -0.000000016230  1  3  4  6 14 15
      -0.000000069537  1  3  4  6 14 16
       0.000000000000  1  3  4  7 10 15
       0.000000449221  1  3  4  7 10 16
       0.000000000000  1  3  4  7 11 15
       0.000000000000  1  3  4  7 11 16
       0.000000008126  1  3  4  7 12 15
       0.000000000000  1  3  4  7 12 16
      -0.000000021520  1  3  4  7 13 15
      -0.000000052331  1  3  4  7 13 16
      -0.000000027510  1  3  4  7 14 15
      -0.000000074642  1  3  4  7 14 16
       0.000000176930  1  3  4  8 10 17
       0.000000743301  1  3  4  8 10 18
       0.000000000000  1  3  4  8 11 17
       0.000000014730  1  3  4  8 11 18
       0.000000000000  1  3  4  8 12 17
      -0.000000017782  1  3  4  8 12 18
      -0.000000010087  1  3  4  8 13 17
      -0.000000041229  1  3  4  8 13 18
      -0.000000016230  1  3  4  8 14 17
      -0.000000069537  1  3  4  8 14 18
       0.000000000000  1  3  4  9 10 17
       0.000000449221  1  3  4  9 10 18
       0.000000000000  1  3  4  9 11 17
       0.000000000000  1  3  4  9 11 18
       0.000000008126  1  3  4  9 12 17
       0.000000000000  1  3  4  9 12 18
      -0.000000021520  1  3  4  9 13 17
      -0.000000052331  1  3  4  9 13 18
      -0.000000027510  1  3  4  9 14 17
      -0.000000074642  1  3  4  9 14 18
      -0.000034617079  1  3  5  1  2  3
       0.000021307894  1  3  5  1  2  4
      -0.000005329501  1  3  5  1  2  5
       0.000016663561  1  3  5  1  3  4
       0.000043273239  1  3  5  1  3  5
      -0.000037122171  1  3  5  1  4  5
       0.000000128859  1  3  5  1  6  7
       0.000000128859  1  3  5  1  8  9
      -0.000096537639  1  3  5  1 10 11
       0.000043178130  1  3  5  1 10 12
      -0.000019948524  1  3  5  1 10 13
       0.000038019883  1  3  5  1 10 14
      -0.000001078720  1  3  5  1 11 12
       0.000003076051  1  3  5  1 11 13
       0.000003387807  1  3  5  1 11 14
      -0.000001818325  1  3  5  1 12 13
      -0.000002819697  1  3  5  1 12 14
       0.000001586148  1  3  5  1 13 14
       0.000000463549  1  3  5  1 15 16
       0.000000463549  1  3  5  1 17 18
      -0.000000007872  1  3  5  2  3  4
      -0.000000280762  1  3  5  2  3  5
       0.000000607666  1  3  5  2  4  5
       0.000000000000  1  3  5  2  6  7
       0.000000000000  1  3  5  2  8  9
       0.000002054184  1  3  5  2 10 11
      -0.000001388098  1  3  5  2 10 12
       0.000010496545  1  3  5  2 10 13
       0.000010399997  1  3  5  2 10 14
       0.000000041675  1  3  5  2 11 12
       0.000000241935  1  3  5  2 11 13
       0.000000274588  1  3  5  2 11 14
      -0.000000543067  1  3  5  2 12 13
      -0.000000618111  1  3  5  2 12 14
       0.000000192138  1  3  5  2 13 14
      -0.000000024875  1  3  5  2 15 16
      -0.000000024875  1  3  5  2 17 18
       0.000000060346  1  3  5  3  4  5
      -0.000000013391  1  3  5  3  6  7
      -0.000000013391  1  3  5  3  8  9
      -0.000034189024  1  3  5  3 10 11
       0.000046977916  1  3  5  3 10 12
      -0.000037498947  1  3  5  3 10 13
      -0.000022648748  1  3  5  3 10 14
      -0.000000057575  1  3  5  3 11 12
       0.000000134146  1  3  5  3 11 13
       0.000000135906  1  3  5  3 11 14
      -0.000000134297  1  3  5  3 12 13
      -0.000000182367  1  3  5  3 12 14
       0.000000083275  1  3  5  3 13 14
       0.000000000000  1  3  5  3 15 16
       0.000000000000  1  3  5  3 17 18
       0.000000028819  1  3  5  4  6  7
       0.000000028819  1  3  5  4  8  9
       0.000030021022  1  3  5  4 10 11
      -0.000040093991  1  3  5  4 10 12
       0.000032333196  1  3  5  4 10 13
       0.000019520142  1  3  5  4 10 14
       0.000000136839  1  3  5  4 11 12
      -0.000000171296  1  3  5  4 11 13
      -0.000000170129  1  3  5  4 11 14
       0.000000106199  1  3  5  4 12 13
       0.000000169783  1  3  5  4 12 14
      -0.000000109257  1  3  5  4 13 14
      -0.000000015383  1  3  5  4 15 16
      -0.000000015383  1  3  5  4 17 18
       0.000000018410  1  3  5  5  6  7
       0.000000018410  1  3  5  5  8  9
       0.000003930554  1  3  5  5 10 11
      -0.000002875586  1  3  5  5 10 12
      -0.000000343934  1  3  5  5 10 13
      -0.000002672427  1  3  5  5 10 14
       0.000000109581  1  3  5  5 11 12
      -0.000000270324  1  3  5  5 11 13
      -0.000000316618  1  3  5  5 11 14
       0.000000163490  1  3  5  5 12 13
       0.000000253516  1  3  5  5 12 14
      -0.000000165097  1  3  5  5 13 14
      -0.000000027547  1  3  5  5 15 16
      -0.000000027547  1  3  5  5 17 18
      -0.000000091652  1  3  5  6 10 15
       0.000000000000  1  3  5  6 10 16
       0.000000000000  1  3  5  6 11 15
      -0.000000018125  1  3  5  6 11 16
       0.000000011344  1  3  5  6 12 15
       0.000000025970  1  3  5  6 12 16
      -0.000000015131  1  3  5  6 13 15
      -0.000000051448  1  3  5  6 13 16
      -0.000000013038  1  3  5  6 14 15
      -0.000000052651  1  3  5  6 14 16
      -0.000000495416  1  3  5  7 10 15
      -0.000000669818  1  3  5  7 10 16
      -0.000000023787  1  3  5  7 11 15
      -0.000000049502  1  3  5  7 11 16
       0.000000033737  1  3  5  7 12 15
       0.000000068182  1  3  5  7 12 16
      -0.000000032506  1  3  5  7 13 15
      -0.000000070958  1  3  5  7 13 16
      -0.000000023005  1  3  5  7 14 15
      -0.000000055921  1  3  5  7 14 16
      -0.000000091652  1  3  5  8 10 17
       0.000000000000  1  3  5  8 10 18
       0.000000000000  1  3  5  8 11 17
      -0.000000018125  1  3  5  8 11 18
       0.000000011344  1  3  5  8 12 17
       0.000000025970  1  3  5  8 12 18
      -0.000000015131  1  3  5  8 13 17
      -0.000000051448  1  3  5  8 13 18
      -0.000000013038  1  3  5  8 14 17
      -0.000000052651  1  3  5  8 14 18
      -0.000000495416  1  3  5  9 10 17
      -0.000000669818  1  3  5  9 10 18
      -0.000000023787  1  3  5  9 11 17
      -0.000000049502  1  3  5  9 11 18
       0.000000033737  1  3  5  9 12 17
       0.000000068182  1  3  5  9 12 18
      -0.000000032506  1  3  5  9 13 17
      -0.000000070958  1  3  5  9 13 18
      -0.000000023005  1  3  5  9 14 17
      -0.000000055921  1  3  5  9 14 18
       0.000024415586  1  4  5  1  2  3
      -0.000005694522  1  4  5  1  2  4
       0.000019320345  1  4  5  1  2  5
      -0.000012202336  1  4  5  1  3  4
      -0.000037122171  1  4  5  1  3  5
       0.000040159499  1  4  5  1  4  5
      -0.000000377725  1  4  5  1  6  7
      -0.000000377725  1  4  5  1  8  9
      -0.000022223305  1  4  5  1 10 11
       0.000024504500  1  4  5  1 10 12
       0.000017877463  1  4  5  1 10 13
      -0.000002157361  1  4  5  1 10 14
       0.000000092428  1  4  5  1 11 12
      -0.000002573578  1  4  5  1 11 13
      -0.000003649541  1  4  5  1 11 14
       0.000001758153  1  4  5  1 12 13
       0.000002827685  1  4  5  1 12 14
      -0.000001456644  1  4  5  1 13 14
      -0.000000357416  1  4  5  1 15 16
      -0.000000357416  1  4  5  1 17 18
       0.000000062327  1  4  5  2  3  4
       0.000000384685  1  4  5  2  3  5
      -0.000000710340  1  4  5  2  4  5
       0.000000040000  1  4  5  2  6  7
       0.000000040000  1  4  5  2  8  9
      -0.000004929909  1  4  5  2 10 11
       0.000008637502  1  4  5  2 10 12
      -0.000025285946  1  4  5  2 10 13
      -0.000028331495  1  4  5  2 10 14
      -0.000000052956  1  4  5  2 11 12
      -0.000000218719  1  4  5  2 11 13
      -0.000000197511  1  4  5  2 11 14
       0.000000555020  1  4  5  2 12 13
       0.000000558733  1  4  5  2 12 14
      -0.000000200082  1  4  5  2 13 14
       0.000000020728  1  4  5  2 15 16
       0.000000020728  1  4  5  2 17 18
      -0.000000024903  1  4  5  3  4  5
       0.000000016400  1  4  5  3  6  7
       0.000000016400  1  4  5  3  8  9
       0.000029216415  1  4  5  3 10 11
      -0.000039881994  1  4  5  3 10 12
       0.000031096039  1  4  5  3 10 13
       0.000017944834  1  4  5  3 10 14
       0.000000049457  1  4  5  3 11 12
      -0.000000012633  1  4  5  3 11 13
       0.000000014698  1  4  5  3 11 14
       0.000000023740  1  4  5  3 12 13
       0.000000034832  1  4  5  3 12 14
      -0.000000029189  1  4  5  3 13 14
       0.000000000000  1  4  5  3 15 16
       0.000000000000  1  4  5  3 17 18
      -0.000000026560  1  4  5  4  6  7
      -0.000000026560  1  4  5  4  8  9
      -0.000030075166  1  4  5  4 10 11
       0.000040122392  1  4  5  4 10 12
      -0.000033429168  1  4  5  4 10 13
      -0.000021102440  1  4  5  4 10 14
      -0.000000107517  1  4  5  4 11 12
      -0.000000027663  1  4  5  4 11 13
      -0.000000102085  1  4  5  4 11 14
       0.000000039446  1  4  5  4 12 13
       0.000000030928  1  4  5  4 12 14
       0.000000024318  1  4  5  4 13 14
       0.000000022559  1  4  5  4 15 16
       0.000000022559  1  4  5  4 17 18
       0.000000007439  1  4  5  5  6  7
       0.000000007439  1  4  5  5  8  9
      -0.000000258364  1  4  5  5 10 11
      -0.000000907320  1  4  5  5 10 12
       0.000004030900  1  4  5  5 10 13
       0.000005512432  1  4  5  5 10 14
      -0.000000090290  1  4  5  5 11 12
       0.000000147264  1  4  5  5 11 13
       0.000000154561  1  4  5  5 11 14
      -0.000000076050  1  4  5  5 12 13
      -0.000000142740  1  4  5  5 12 14
       0.000000110825  1  4  5  5 13 14
       0.000000030220  1  4  5  5 15 16
       0.000000030220  1  4  5  5 17 18
      -0.000000043684  1  4  5  6 10 15
      -0.000000441568  1  4  5  6 10 16
       0.000000000000  1  4  5  6 11 15
      -0.000000016137  1  4  5  6 11 16
       0.000000000000  1  4  5  6 12 15
       0.000000020244  1  4  5  6 12 16
       0.000000013212  1  4  5  6 13 15
       0.000000033306  1  4  5  6 13 16
       0.000000017739  1  4  5  6 14 15
       0.000000060374  1  4  5  6 14 16
       0.000000324388  1  4  5  7 10 15
       0.000000358390  1  4  5  7 10 16
       0.000000020973  1  4  5  7 11 15
       0.000000028436  1  4  5  7 11 16
      -0.000000029824  1  4  5  7 12 15
      -0.000000041755  1  4  5  7 12 16
       0.000000035832  1  4  5  7 13 15
       0.000000065096  1  4  5  7 13 16
       0.000000032315  1  4  5  7 14 15
       0.000000063899  1  4  5  7 14 16
      -0.000000043684  1  4  5  8 10 17
      -0.000000441568  1  4  5  8 10 18
       0.000000000000  1  4  5  8 11 17
      -0.000000016137  1  4  5  8 11 18
       0.000000000000  1  4  5  8 12 17
       0.000000020244  1  4  5  8 12 18
       0.000000013212  1  4  5  8 13 17
       0.000000033306  1  4  5  8 13 18
       0.000000017739  1  4  5  8 14 17
       0.000000060374  1  4  5  8 14 18
       0.000000324388  1  4  5  9 10 17
       0.000000358390  1  4  5  9 10 18
       0.000000020973  1  4  5  9 11 17
       0.000000028436  1  4  5  9 11 18
      -0.000000029824  1  4  5  9 12 17
      -0.000000041755  1  4  5  9 12 18
       0.000000035832  1  4  5  9 13 17
       0.000000065096  1  4  5  9 13 18
       0.000000032315  1  4  5  9 14 17
       0.000000063899  1  4  5  9 14 18
       0.000002899233  1  6  7  1  2  3
      -0.000002385445  1  6  7  1  2  4
       0.000006756201  1  6  7  1  2  5
       0.000000503769  1  6  7  1  3  4
       0.000000128859  1  6  7  1  3  5
      -0.000000377725  1  6  7  1  4  5
       0.000093653394  1  6  7  1  6  7
      -0.000000612649  1  6  7  1  8  9
       0.000215036361  1  6  7  1 10 11
      -0.000205735546  1  6  7  1 10 12
       0.000013335831  1  6  7  1 10 13
      -0.000144151251  1  6  7  1 10 14
       0.000000914966  1  6  7  1 11 12
      -0.000001068828  1  6  7  1 11 13
      -0.000000837875  1  6  7  1 11 14
       0.000000699508  1  6  7  1 12 13
       0.000001119453  1  6  7  1 12 14
      -0.000000532017  1  6  7  1 13 14
       0.000000746249  1  6  7  1 15 16
      -0.000000323344  1  6  7  1 17 18
      -0.000000014535  1  6  7  2  3  4
      -0.000000019856  1  6  7  2  3  5
       0.000000019237  1  6  7  2  4  5
      -0.000000020581  1  6  7  2  6  7
       0.000000017847  1  6  7  2  8  9
      -0.000011304446  1  6  7  2 10 11
       0.000014244953  1  6  7  2 10 12
      -0.000001849534  1  6  7  2 10 13
       0.000008016854  1  6  7  2 10 14
       0.000000000000  1  6  7  2 11 12
       0.000000031325  1  6  7  2 11 13
       0.000000040060  1  6  7  2 11 14
      -0.000000025882  1  6  7  2 12 13
      -0.000000035891  1  6  7  2 12 14
       0.000000019532  1  6  7  2 13 14
       0.000000066772  1  6  7  2 15 16
       0.000000014209  1  6  7  2 17 18
      -0.000000008018  1  6  7  3  4  5
       0.000000132361  1  6  7  3  6  7
       0.000000000000  1  6  7  3  8  9
       0.000000000000  1  6  7  3 10 11
       0.000000089158  1  6  7  3 10 12
      -0.000000422335  1  6  7  3 10 13
      -0.000000455637  1  6  7  3 10 14
       0.000000000000  1  6  7  3 11 12
       0.000000000000  1  6  7  3 11 13
       0.000000000000  1  6  7  3 11 14
       0.000000011594  1  6  7  3 12 13
       0.000000013762  1  6  7  3 12 14
       0.000000000000  1  6  7  3 13 14
      -0.000000037490  1  6  7  3 15 16
       0.000000000000  1  6  7  3 17 18
      -0.000000284636  1  6  7  4  6  7
       0.000000000000  1  6  7  4  8  9
       0.000000216170  1  6  7  4 10 11
      -0.000000689626  1  6  7  4 10 12
       0.000000320881  1  6  7  4 10 13
      -0.000000162303  1  6  7  4 10 14
      -0.000000007969  1  6  7  4 11 12
       0.000000000000  1  6  7  4 11 13
      -0.000000008988  1  6  7  4 11 14
       0.000000000000  1  6  7  4 12 13
       0.000000000000  1  6  7  4 12 14
       0.000000000000  1  6  7  4 13 14
       0.000000069153  1  6  7  4 15 16
       0.000000000000  1  6  7  4 17 18
      -0.000000208901  1  6  7  5  6  7
       0.000000010098  1  6  7  5  8  9
      -0.000001956897  1  6  7  5 10 11
       0.000001521617  1  6  7  5 10 12
       0.000000083024  1  6  7  5 10 13
       0.000001348887  1  6  7  5 10 14
      -0.000000008576  1  6  7  5 11 12
       0.000000000000  1  6  7  5 11 13
       0.000000000000  1  6  7  5 11 14
       0.000000000000  1  6  7  5 12 13
       0.000000000000  1  6  7  5 12 14
       0.000000000000  1  6  7  5 13 14
       0.000000042312  1  6  7  5 15 16
       0.000000000000  1  6  7  5 17 18
       0.000012159631  1  6  7  6 10 15
       0.000125250332  1  6  7  6 10 16
      -0.000000027327  1  6  7  6 11 15
      -0.000000175771  1  6  7  6 11 16
       0.000000027084  1  6  7  6 12 15
       0.000000163272  1  6  7  6 12 16
       0.000000039621  1  6  7  6 13 15
       0.000000345199  1  6  7  6 13 16
       0.000000068453  1  6  7  6 14 15
       0.000000551451  1  6  7  6 14 16
       0.000004996542  1  6  7  7 10 15
       0.000058716983  1  6  7  7 10 16
      -0.000000076104  1  6  7  7 11 15
      -0.000000630700  1  6  7  7 11 16
       0.000000070297  1  6  7  7 12 15
       0.000000619049  1  6  7  7 12 16
       0.000000051780  1  6  7  7 13 15
       0.000000075757  1  6  7  7 13 16
       0.000000131253  1  6  7  7 14 15
       0.000000613710  1  6  7  7 14 16
      -0.000000066363  1  6  7  8 10 17
      -0.000000746881  1  6  7  8 10 18
       0.000000000000  1  6  7  8 11 17
      -0.000000010702  1  6  7  8 11 18
       0.000000000000  1  6  7  8 12 17
       0.000000016123  1  6  7  8 12 18
       0.000000000000  1  6  7  8 13 17
       0.000000000000  1  6  7  8 13 18
       0.000000000000  1  6  7  8 14 17
       0.000000000000  1  6  7  8 14 18
       0.000000236991  1  6  7  9 10 17
      -0.000000134828  1  6  7  9 10 18
       0.000000000000  1  6  7  9 11 17
       0.000000000000  1  6  7  9 11 18
      -0.000000009275  1  6  7  9 12 17
       0.000000000000  1  6  7  9 12 18
       0.000000000000  1  6  7  9 13 17
       0.000000000000  1  6  7  9 13 18
       0.000000000000  1  6  7  9 14 17
       0.000000000000  1  6  7  9 14 18
       0.000002899233  1  8  9  1  2  3
      -0.000002385445  1  8  9  1  2  4
       0.000006756201  1  8  9  1  2  5
       0.000000503769  1  8  9  1  3  4
       0.000000128859  1  8  9  1  3  5
      -0.000000377725  1  8  9  1  4  5
      -0.000000612649  1  8  9  1  6  7
       0.000093653394  1  8  9  1  8  9
       0.000215036361  1  8  9  1 10 11
      -0.000205735546  1  8  9  1 10 12
       0.000013335831  1  8  9  1 10 13
      -0.000144151251  1  8  9  1 10 14
       0.000000914966  1  8  9  1 11 12
      -0.000001068828  1  8  9  1 11 13
      -0.000000837875  1  8  9  1 11 14
       0.000000699508  1  8  9  1 12 13
       0.000001119453  1  8  9  1 12 14
      -0.000000532017  1  8  9  1 13 14
      -0.000000323344  1  8  9  1 15 16
       0.000000746249  1  8  9  1 17 18
      -0.000000014535  1  8  9  2  3  4
      -0.000000019856  1  8  9  2  3  5
       0.000000019237  1  8  9  2  4  5
       0.000000017847  1  8  9  2  6  7
      -0.000000020581  1  8  9  2  8  9
      -0.000011304446  1  8  9  2 10 11
       0.000014244953  1  8  9  2 10 12
      -0.000001849534  1  8  9  2 10 13
       0.000008016854  1  8  9  2 10 14
       0.000000000000  1  8  9  2 11 12
       0.000000031325  1  8  9  2 11 13
       0.000000040060  1  8  9  2 11 14
      -0.000000025882  1  8  9  2 12 13
      -0.000000035891  1  8  9  2 12 14
       0.000000019532  1  8  9  2 13 14
       0.000000014209  1  8  9  2 15 16
       0.000000066772  1  8  9  2 17 18
      -0.000000008018  1  8  9  3  4  5
       0.000000000000  1  8  9  3  6  7
       0.000000132361  1  8  9  3  8  9
       0.000000000000  1  8  9  3 10 11
       0.000000089158  1  8  9  3 10 12
      -0.000000422335  1  8  9  3 10 13
      -0.000000455637  1  8  9  3 10 14
       0.000000000000  1  8  9  3 11 12
       0.000000000000  1  8  9  3 11 13
       0.000000000000  1  8  9  3 11 14
       0.000000011594  1  8  9  3 12 13
       0.000000013762  1  8  9  3 12 14
       0.000000000000  1  8  9  3 13 14
       0.000000000000  1  8  9  3 15 16
      -0.000000037490  1  8  9  3 17 18
       0.000000000000  1  8  9  4  6  7
      -0.000000284636  1  8  9  4  8  9
       0.000000216170  1  8  9  4 10 11
      -0.000000689626  1  8  9  4 10 12
       0.000000320881  1  8  9  4 10 13
      -0.000000162303  1  8  9  4 10 14
      -0.000000007969  1  8  9  4 11 12
       0.000000000000  1  8  9  4 11 13
      -0.000000008988  1  8  9  4 11 14
       0.000000000000  1  8  9  4 12 13
       0.000000000000  1  8  9  4 12 14
       0.000000000000  1  8  9  4 13 14
       0.000000000000  1  8  9  4 15 16
       0.000000069153  1  8  9  4 17 18
       0.000000010098  1  8  9  5  6  7
      -0.000000208901  1  8  9  5  8  9
      -0.000001956897  1  8  9  5 10 11
       0.000001521617  1  8  9  5 10 12
       0.000000083024  1  8  9  5 10 13
       0.000001348887  1  8  9  5 10 14
      -0.000000008576  1  8  9  5 11 12
       0.000000000000  1  8  9  5 11 13
       0.000000000000  1  8  9  5 11 14
       0.000000000000  1  8  9  5 12 13
       0.000000000000  1  8  9  5 12 14
       0.000000000000  1  8  9  5 13 14
       0.000000000000  1  8  9  5 15 16
       0.000000042312  1  8  9  5 17 18
      -0.000000066363  1  8  9  6 10 15
      -0.000000746881  1  8  9  6 10 16
       0.000000000000  1  8  9  6 11 15
      -0.000000010702  1  8  9  6 11 16
       0.000000000000  1  8  9  6 12 15
       0.000000016123  1  8  9  6 12 16
       0.000000000000  1  8  9  6 13 15
       0.000000000000  1  8  9  6 13 16
       0.000000000000  1  8  9  6 14 15
       0.000000000000  1  8  9  6 14 16
       0.000000236991  1  8  9  7 10 15
      -0.000000134828  1  8  9  7 10 16
       0.000000000000  1  8  9  7 11 15
       0.000000000000  1  8  9  7 11 16
      -0.000000009275  1  8  9  7 12 15
       0.000000000000  1  8  9  7 12 16
       0.000000000000  1  8  9  7 13 15
       0.000000000000  1  8  9  7 13 16
       0.000000000000  1  8  9  7 14 15
       0.000000000000  1  8  9  7 14 16
       0.000012159631  1  8  9  8 10 17
       0.000125250332  1  8  9  8 10 18
      -0.000000027327  1  8  9  8 11 17
      -0.000000175771  1  8  9  8 11 18
       0.000000027084  1  8  9  8 12 17
       0.000000163272  1  8  9  8 12 18
       0.000000039621  1  8  9  8 13 17
       0.000000345199  1  8  9  8 13 18
       0.000000068453  1  8  9  8 14 17
       0.000000551451  1  8  9  8 14 18
       0.000004996542  1  8  9  9 10 17
       0.000058716983  1  8  9  9 10 18
      -0.000000076104  1  8  9  9 11 17
      -0.000000630700  1  8  9  9 11 18
       0.000000070297  1  8  9  9 12 17
       0.000000619049  1  8  9  9 12 18
       0.000000051780  1  8  9  9 13 17
       0.000000075757  1  8  9  9 13 18
       0.000000131253  1  8  9  9 14 17
       0.000000613710  1  8  9  9 14 18
       0.000366606024  1 10 11  1  2  3
      -0.000788553562  1 10 11  1  2  4
      -0.000202037531  1 10 11  1  2  5
      -0.000135437082  1 10 11  1  3  4
      -0.000096537639  1 10 11  1  3  5
      -0.000022223305  1 10 11  1  4  5
       0.000215036361  1 10 11  1  6  7
       0.000215036361  1 10 11  1  8  9
      -0.100549612240  1 10 11  1 10 11
       0.059365088916  1 10 11  1 10 12
      -0.003926951700  1 10 11  1 10 13
       0.024421183204  1 10 11  1 10 14
      -0.000080057933  1 10 11  1 11 12
       0.000469392148  1 10 11  1 11 13
       0.000540500456  1 10 11  1 11 14
      -0.000211236589  1 10 11  1 12 13
      -0.000277419321  1 10 11  1 12 14
       0.000125603480  1 10 11  1 13 14
       0.000128704036  1 10 11  1 15 16
       0.000128704036  1 10 11  1 17 18
      -0.000000435113  1 10 11  2  3  4
      -0.000000398704  1 10 11  2  3  5
       0.000000190488  1 10 11  2  4  5
       0.000000881901  1 10 11  2  6  7
       0.000000881901  1 10 11  2  8  9
      -0.000294379318  1 10 11  2 10 11
       0.000296906748  1 10 11  2 10 12
       0.000532825307  1 10 11  2 10 13
       0.000854067613  1 10 11  2 10 14
       0.000000243663  1 10 11  2 11 12
      -0.000001340498  1 10 11  2 11 13
      -0.000001407952  1 10 11  2 11 14
       0.000000775063  1 10 11  2 12 13
       0.000000856403  1 10 11  2 12 14
      -0.000000576626  1 10 11  2 13 14
       0.000000709203  1 10 11  2 15 16
       0.000000709203  1 10 11  2 17 18
      -0.000000288634  1 10 11  3  4  5
       0.000000743395  1 10 11  3  6  7
       0.000000743395  1 10 11  3  8  9
      -0.000166515901  1 10 11  3 10 11
       0.000046444445  1 10 11  3 10 12
       0.000150625698  1 10 11  3 10 13
       0.000210628177  1 10 11  3 10 14
       0.000000403432  1 10 11  3 11 12
      -0.000002611792  1 10 11  3 11 13
      -0.000003027589  1 10 11  3 11 14
       0.000002183970  1 10 11  3 12 13
       0.000002654588  1 10 11  3 12 14
      -0.000001230083  1 10 11  3 13 14
       0.000000441565  1 10 11  3 15 16
       0.000000441565  1 10 11  3 17 18
      -0.000001530992  1 10 11  4  6  7
      -0.000001530992  1 10 11  4  8  9
       0.000460380608  1 10 11  4 10 11
      -0.000207853457  1 10 11  4 10 12
      -0.000022167552  1 10 11  4 10 13
      -0.000141797735  1 10 11  4 10 14
      -0.000000826069  1 10 11  4 11 12
       0.000004806382  1 10 11  4 11 13
       0.000005487512  1 10 11  4 11 14
      -0.000003926798  1 10 11  4 12 13
      -0.000004689860  1 10 11  4 12 14
       0.000002040932  1 10 11  4 13 14
      -0.000000946903  1 10 11  4 15 16
      -0.000000946903  1 10 11  4 17 18
      -0.000000786940  1 10 11  5  6  7
      -0.000000786940  1 10 11  5  8  9
       0.000332277292  1 10 11  5 10 11
      -0.000135031895  1 10 11  5 10 12
      -0.000034440790  1 10 11  5 10 13
      -0.000132885753  1 10 11  5 10 14
      -0.000000524451  1 10 11  5 11 12
       0.000002757949  1 10 11  5 11 13
       0.000003259645  1 10 11  5 11 14
      -0.000002305332  1 10 11  5 12 13
      -0.000002865037  1 10 11  5 12 14
       0.000001087644  1 10 11  5 13 14
      -0.000000478748  1 10 11  5 15 16
      -0.000000478748  1 10 11  5 17 18
       0.000003402580  1 10 11  6 10 15
       0.000255446453  1 10 11  6 10 16
      -0.000000390544  1 10 11  6 11 15
      -0.000002365364  1 10 11  6 11 16
       0.000000262617  1 10 11  6 12 15
       0.000001592263  1 10 11  6 12 16
       0.000000019459  1 10 11  6 13 15
       0.000001447312  1 10 11  6 13 16
       0.000000186007  1 10 11  6 14 15
       0.000002801388  1 10 11  6 14 16
      -0.000110961899  1 10 11  7 10 15
       0.000025819168  1 10 11  7 10 16
      -0.000001060541  1 10 11  7 11 15
      -0.000006197258  1 10 11  7 11 16
       0.000000696318  1 10 11  7 12 15
       0.000004002562  1 10 11  7 12 16
      -0.000000703423  1 10 11  7 13 15
      -0.000000030554  1 10 11  7 13 16
      -0.000000451536  1 10 11  7 14 15
       0.000002362120  1 10 11  7 14 16
       0.000003402580  1 10 11  8 10 17
       0.000255446453  1 10 11  8 10 18
      -0.000000390544  1 10 11  8 11 17
      -0.000002365364  1 10 11  8 11 18
       0.000000262617  1 10 11  8 12 17
       0.000001592263  1 10 11  8 12 18
       0.000000019459  1 10 11  8 13 17
       0.000001447312  1 10 11  8 13 18
       0.000000186007  1 10 11  8 14 17
       0.000002801388  1 10 11  8 14 18
      -0.000110961899  1 10 11  9 10 17
       0.000025819168  1 10 11  9 10 18
      -0.000001060541  1 10 11  9 11 17
      -0.000006197258  1 10 11  9 11 18
       0.000000696318  1 10 11  9 12 17
       0.000004002562  1 10 11  9 12 18
      -0.000000703423  1 10 11  9 13 17
      -0.000000030554  1 10 11  9 13 18
      -0.000000451536  1 10 11  9 14 17
       0.000002362120  1 10 11  9 14 18
      -0.000246059497  1 10 12  1  2  3
       0.000485872419  1 10 12  1  2  4
      -0.000117887836  1 10 12  1  2  5
       0.000067553355  1 10 12  1  3  4
       0.000043178130  1 10 12  1  3  5
       0.000024504500  1 10 12  1  4  5
      -0.000205735546  1 10 12  1  6  7
      -0.000205735546  1 10 12  1  8  9
       0.059365088916  1 10 12  1 10 11
      -0.037810265423  1 10 12  1 10 12
       0.002266479396  1 10 12  1 10 13
      -0.017464390639  1 10 12  1 10 14
       0.000022410970  1 10 12  1 11 12
      -0.000227598157  1 10 12  1 11 13
      -0.000283221478  1 10 12  1 11 14
       0.000103241035  1 10 12  1 12 13
       0.000145467646  1 10 12  1 12 14
      -0.000063096494  1 10 12  1 13 14
      -0.000076178630  1 10 12  1 15 16
      -0.000076178630  1 10 12  1 17 18
       0.000000553807  1 10 12  2  3  4
       0.000000568019  1 10 12  2  3  5
      -0.000000337124  1 10 12  2  4  5
      -0.000000850742  1 10 12  2  6  7
      -0.000000850742  1 10 12  2  8  9
       0.000468545183  1 10 12  2 10 11
      -0.000513985477  1 10 12  2 10 12
      -0.000163945366  1 10 12  2 10 13
      -0.000525582512  1 10 12  2 10 14
      -0.000000061404  1 10 12  2 11 12
       0.000000180540  1 10 12  2 11 13
       0.000000029261  1 10 12  2 11 14
      -0.000000066266  1 10 12  2 12 13
       0.000000109679  1 10 12  2 12 14
       0.000000036992  1 10 12  2 13 14
      -0.000000725809  1 10 12  2 15 16
      -0.000000725809  1 10 12  2 17 18
       0.000000349546  1 10 12  3  4  5
      -0.000000492432  1 10 12  3  6  7
      -0.000000492432  1 10 12  3  8  9
       0.000085712639  1 10 12  3 10 11
      -0.000023722066  1 10 12  3 10 12
      -0.000070556753  1 10 12  3 10 13
      -0.000101706877  1 10 12  3 10 14
      -0.000000348950  1 10 12  3 11 12
       0.000001977542  1 10 12  3 11 13
       0.000002258562  1 10 12  3 11 14
      -0.000001767274  1 10 12  3 12 13
      -0.000002174026  1 10 12  3 12 14
       0.000001052316  1 10 12  3 13 14
      -0.000000221428  1 10 12  3 15 16
      -0.000000221428  1 10 12  3 17 18
       0.000001016486  1 10 12  4  6  7
       0.000001016486  1 10 12  4  8  9
      -0.000243041067  1 10 12  4 10 11
       0.000114764940  1 10 12  4 10 12
       0.000000475947  1 10 12  4 10 13
       0.000065166501  1 10 12  4 10 14
       0.000000752605  1 10 12  4 11 12
      -0.000003458682  1 10 12  4 11 13
      -0.000003847056  1 10 12  4 11 14
       0.000002910380  1 10 12  4 12 13
       0.000003532232  1 10 12  4 12 14
      -0.000001650757  1 10 12  4 13 14
       0.000000487925  1 10 12  4 15 16
       0.000000487925  1 10 12  4 17 18
       0.000000306220  1 10 12  5  6  7
       0.000000306220  1 10 12  5  8  9
      -0.000134895089  1 10 12  5 10 11
       0.000045610323  1 10 12  5 10 12
       0.000022630162  1 10 12  5 10 13
       0.000064368528  1 10 12  5 10 14
       0.000000590129  1 10 12  5 11 12
      -0.000002215791  1 10 12  5 11 13
      -0.000002545498  1 10 12  5 11 14
       0.000001674506  1 10 12  5 12 13
       0.000002200800  1 10 12  5 12 14
      -0.000000925063  1 10 12  5 13 14
       0.000000037869  1 10 12  5 15 16
       0.000000037869  1 10 12  5 17 18
      -0.000018856506  1 10 12  6 10 15
      -0.000257066444  1 10 12  6 10 16
       0.000000234851  1 10 12  6 11 15
       0.000001814592  1 10 12  6 11 16
      -0.000000172046  1 10 12  6 12 15
      -0.000001518121  1 10 12  6 12 16
      -0.000000049271  1 10 12  6 13 15
      -0.000000801635  1 10 12  6 13 16
      -0.000000183720  1 10 12  6 14 15
      -0.000002012883  1 10 12  6 14 16
       0.000058455118  1 10 12  7 10 15
      -0.000061848484  1 10 12  7 10 16
       0.000000474866  1 10 12  7 11 15
       0.000003962392  1 10 12  7 11 16
      -0.000000268855  1 10 12  7 12 15
      -0.000002945038  1 10 12  7 12 16
       0.000000259337  1 10 12  7 13 15
       0.000000063291  1 10 12  7 13 16
       0.000000128405  1 10 12  7 14 15
      -0.000001902022  1 10 12  7 14 16
      -0.000018856506  1 10 12  8 10 17
      -0.000257066444  1 10 12  8 10 18
       0.000000234851  1 10 12  8 11 17
       0.000001814592  1 10 12  8 11 18
      -0.000000172046  1 10 12  8 12 17
      -0.000001518121  1 10 12  8 12 18
      -0.000000049271  1 10 12  8 13 17
      -0.000000801635  1 10 12  8 13 18
      -0.000000183720  1 10 12  8 14 17
      -0.000002012883  1 10 12  8 14 18
       0.000058455118  1 10 12  9 10 17
      -0.000061848484  1 10 12  9 10 18
       0.000000474866  1 10 12  9 11 17
       0.000003962392  1 10 12  9 11 18
      -0.000000268855  1 10 12  9 12 17
      -0.000002945038  1 10 12  9 12 18
       0.000000259337  1 10 12  9 13 17
       0.000000063291  1 10 12  9 13 18
       0.000000128405  1 10 12  9 14 17
      -0.000001902022  1 10 12  9 14 18
       0.000315032901  1 10 13  1  2  3
      -0.000790277107  1 10 13  1  2  4
      -0.000607653263  1 10 13  1  2  5
      -0.000039255649  1 10 13  1  3  4
      -0.000019948524  1 10 13  1  3  5
       0.000017877463  1 10 13  1  4  5
       0.000013335831  1 10 13  1  6  7
       0.000013335831  1 10 13  1  8  9
      -0.003926951700  1 10 13  1 10 11
       0.002266479396  1 10 13  1 10 12
       0.000068745735  1 10 13  1 10 13
       0.001095905803  1 10 13  1 10 14
      -0.000016376142  1 10 13  1 11 12
       0.000162348681  1 10 13  1 11 13
       0.000204010152  1 10 13  1 11 14
      -0.000092246285  1 10 13  1 12 13
      -0.000121800660  1 10 13  1 12 14
       0.000047971449  1 10 13  1 13 14
       0.000006613140  1 10 13  1 15 16
       0.000006613140  1 10 13  1 17 18
       0.000000105657  1 10 13  2  3  4
      -0.000000068817  1 10 13  2  3  5
       0.000000352896  1 10 13  2  4  5
       0.000000325200  1 10 13  2  6  7
       0.000000325200  1 10 13  2  8  9
       0.000128229004  1 10 13  2 10 11
      -0.000201347175  1 10 13  2 10 12
       0.000826782722  1 10 13  2 10 13
       0.000924348718  1 10 13  2 10 14
       0.000000000000  1 10 13  2 11 12
       0.000000069385  1 10 13  2 11 13
      -0.000000063537  1 10 13  2 11 14
      -0.000000047894  1 10 13  2 12 13
       0.000000112989  1 10 13  2 12 14
      -0.000000446279  1 10 13  2 13 14
       0.000000307632  1 10 13  2 15 16
       0.000000307632  1 10 13  2 17 18
       0.000000012085  1 10 13  3  4  5
       0.000000468579  1 10 13  3  6  7
       0.000000468579  1 10 13  3  8  9
      -0.000094897758  1 10 13  3 10 11
       0.000064168212  1 10 13  3 10 12
       0.000041323538  1 10 13  3 10 13
       0.000101393034  1 10 13  3 10 14
      -0.000000152303  1 10 13  3 11 12
       0.000000591808  1 10 13  3 11 13
       0.000000659707  1 10 13  3 11 14
      -0.000000107512  1 10 13  3 12 13
      -0.000000188202  1 10 13  3 12 14
       0.000000045375  1 10 13  3 13 14
       0.000000309419  1 10 13  3 15 16
       0.000000309419  1 10 13  3 17 18
      -0.000001054401  1 10 13  4  6  7
      -0.000001054401  1 10 13  4  8  9
       0.000185448593  1 10 13  4 10 11
      -0.000114814620  1 10 13  4 10 12
      -0.000023713601  1 10 13  4 10 13
      -0.000101250218  1 10 13  4 10 14
       0.000000376443  1 10 13  4 11 12
      -0.000001393588  1 10 13  4 11 13
      -0.000001585826  1 10 13  4 11 14
       0.000000217654  1 10 13  4 12 13
       0.000000425677  1 10 13  4 12 14
      -0.000000152891  1 10 13  4 13 14
      -0.000000671279  1 10 13  4 15 16
      -0.000000671279  1 10 13  4 17 18
      -0.000000789278  1 10 13  5  6  7
      -0.000000789278  1 10 13  5  8  9
       0.000119110249  1 10 13  5 10 11
      -0.000072117626  1 10 13  5 10 12
       0.000012665449  1 10 13  5 10 13
      -0.000023941748  1 10 13  5 10 14
       0.000000298637  1 10 13  5 11 12
      -0.000001140010  1 10 13  5 11 13
      -0.000001335602  1 10 13  5 11 14
       0.000000180555  1 10 13  5 12 13
       0.000000392172  1 10 13  5 12 14
      -0.000000333985  1 10 13  5 13 14
      -0.000000477340  1 10 13  5 15 16
      -0.000000477340  1 10 13  5 17 18
       0.000002374570  1 10 13  6 10 15
       0.000018893710  1 10 13  6 10 16
      -0.000000015628  1 10 13  6 11 15
       0.000000199174  1 10 13  6 11 16
       0.000000000000  1 10 13  6 12 15
      -0.000000317105  1 10 13  6 12 16
       0.000000033962  1 10 13  6 13 15
       0.000001355357  1 10 13  6 13 16
       0.000000042154  1 10 13  6 14 15
       0.000001525348  1 10 13  6 14 16
      -0.000005149145  1 10 13  7 10 15
       0.000002517205  1 10 13  7 10 16
      -0.000000203770  1 10 13  7 11 15
      -0.000000266203  1 10 13  7 11 16
       0.000000197941  1 10 13  7 12 15
       0.000000113780  1 10 13  7 12 16
      -0.000000507476  1 10 13  7 13 15
       0.000000428076  1 10 13  7 13 16
      -0.000000532160  1 10 13  7 14 15
       0.000000615401  1 10 13  7 14 16
       0.000002374570  1 10 13  8 10 17
       0.000018893710  1 10 13  8 10 18
      -0.000000015628  1 10 13  8 11 17
       0.000000199174  1 10 13  8 11 18
       0.000000000000  1 10 13  8 12 17
      -0.000000317105  1 10 13  8 12 18
       0.000000033962  1 10 13  8 13 17
       0.000001355357  1 10 13  8 13 18
       0.000000042154  1 10 13  8 14 17
       0.000001525348  1 10 13  8 14 18
      -0.000005149145  1 10 13  9 10 17
       0.000002517205  1 10 13  9 10 18
      -0.000000203770  1 10 13  9 11 17
      -0.000000266203  1 10 13  9 11 18
       0.000000197941  1 10 13  9 12 17
       0.000000113780  1 10 13  9 12 18
      -0.000000507476  1 10 13  9 13 17
       0.000000428076  1 10 13  9 13 18
      -0.000000532160  1 10 13  9 14 17
       0.000000615401  1 10 13  9 14 18
       0.000187515035  1 10 14  1  2  3
      -0.000529133504  1 10 14  1  2  4
      -0.000714377444  1 10 14  1  2  5
       0.000008376144  1 10 14  1  3  4
       0.000038019883  1 10 14  1  3  5
      -0.000002157361  1 10 14  1  4  5
      -0.000144151251  1 10 14  1  6  7
      -0.000144151251  1 10 14  1  8  9
       0.024421183204  1 10 14  1 10 11
      -0.017464390639  1 10 14  1 10 12
       0.001095905803  1 10 14  1 10 13
      -0.011053298336  1 10 14  1 10 14
      -0.000005808841  1 10 14  1 11 12
       0.000078407334  1 10 14  1 11 13
       0.000082673642  1 10 14  1 11 14
      -0.000058702280  1 10 14  1 12 13
      -0.000063915029  1 10 14  1 12 14
       0.000026689774  1 10 14  1 13 14
      -0.000028275174  1 10 14  1 15 16
      -0.000028275174  1 10 14  1 17 18
       0.000000390474  1 10 14  2  3  4
       0.000000081711  1 10 14  2  3  5
       0.000000409177  1 10 14  2  4  5
      -0.000000019342  1 10 14  2  6  7
      -0.000000019342  1 10 14  2  8  9
       0.000318132186  1 10 14  2 10 11
      -0.000373452777  1 10 14  2 10 12
       0.000828783504  1 10 14  2 10 13
       0.000646943846  1 10 14  2 10 14
      -0.000000023745  1 10 14  2 11 12
       0.000000342787  1 10 14  2 11 13
       0.000000135240  1 10 14  2 11 14
      -0.000000297506  1 10 14  2 12 13
      -0.000000055097  1 10 14  2 12 14
      -0.000000444817  1 10 14  2 13 14
       0.000000041572  1 10 14  2 15 16
       0.000000041572  1 10 14  2 17 18
       0.000000235829  1 10 14  3  4  5
       0.000000230091  1 10 14  3  6  7
       0.000000230091  1 10 14  3  8  9
      -0.000084996286  1 10 14  3 10 11
       0.000082792175  1 10 14  3 10 12
      -0.000031694788  1 10 14  3 10 13
       0.000031672727  1 10 14  3 10 14
      -0.000000325896  1 10 14  3 11 12
       0.000001626460  1 10 14  3 11 13
       0.000001853429  1 10 14  3 11 14
      -0.000000957749  1 10 14  3 12 13
      -0.000001318658  1 10 14  3 12 14
       0.000000887117  1 10 14  3 13 14
       0.000000244858  1 10 14  3 15 16
       0.000000244858  1 10 14  3 17 18
      -0.000000506913  1 10 14  4  6  7
      -0.000000506913  1 10 14  4  8  9
       0.000106409154  1 10 14  4 10 11
      -0.000093479210  1 10 14  4 10 12
       0.000007637954  1 10 14  4 10 13
      -0.000058956757  1 10 14  4 10 14
       0.000000708276  1 10 14  4 11 12
      -0.000003288545  1 10 14  4 11 13
      -0.000003676226  1 10 14  4 11 14
       0.000001768784  1 10 14  4 12 13
       0.000002394200  1 10 14  4 12 14
      -0.000001432659  1 10 14  4 13 14
      -0.000000511447  1 10 14  4 15 16
      -0.000000511447  1 10 14  4 17 18
      -0.000000649369  1 10 14  5  6  7
      -0.000000649369  1 10 14  5  8  9
       0.000074508595  1 10 14  5 10 11
      -0.000061231088  1 10 14  5 10 12
       0.000023945508  1 10 14  5 10 13
      -0.000003631110  1 10 14  5 10 14
       0.000000575317  1 10 14  5 11 12
      -0.000002460735  1 10 14  5 11 13
      -0.000002830303  1 10 14  5 11 14
       0.000001147749  1 10 14  5 12 13
       0.000001714855  1 10 14  5 12 14
      -0.000001114113  1 10 14  5 13 14
      -0.000000568837  1 10 14  5 15 16
      -0.000000568837  1 10 14  5 17 18
      -0.000020065038  1 10 14  6 10 15
      -0.000182153545  1 10 14  6 10 16
       0.000000082100  1 10 14  6 11 15
       0.000001097462  1 10 14  6 11 16
      -0.000000072309  1 10 14  6 12 15
      -0.000001056359  1 10 14  6 12 16
      -0.000000015139  1 10 14  6 13 15
       0.000001010851  1 10 14  6 13 16
      -0.000000091566  1 10 14  6 14 15
       0.000000246741  1 10 14  6 14 16
       0.000016021084  1 10 14  7 10 15
      -0.000062043930  1 10 14  7 10 16
       0.000000022315  1 10 14  7 11 15
       0.000001796553  1 10 14  7 11 16
       0.000000028445  1 10 14  7 12 15
      -0.000001572197  1 10 14  7 12 16
      -0.000000505491  1 10 14  7 13 15
       0.000000451811  1 10 14  7 13 16
      -0.000000583492  1 10 14  7 14 15
      -0.000000814441  1 10 14  7 14 16
      -0.000020065038  1 10 14  8 10 17
      -0.000182153545  1 10 14  8 10 18
       0.000000082100  1 10 14  8 11 17
       0.000001097462  1 10 14  8 11 18
      -0.000000072309  1 10 14  8 12 17
      -0.000001056359  1 10 14  8 12 18
      -0.000000015139  1 10 14  8 13 17
       0.000001010851  1 10 14  8 13 18
      -0.000000091566  1 10 14  8 14 17
       0.000000246741  1 10 14  8 14 18
       0.000016021084  1 10 14  9 10 17
      -0.000062043930  1 10 14  9 10 18
       0.000000022315  1 10 14  9 11 17
       0.000001796553  1 10 14  9 11 18
       0.000000028445  1 10 14  9 12 17
      -0.000001572197  1 10 14  9 12 18
      -0.000000505491  1 10 14  9 13 17
       0.000000451811  1 10 14  9 13 18
      -0.000000583492  1 10 14  9 14 17
      -0.000000814441  1 10 14  9 14 18
       0.000003516235  1 11 12  1  2  3
      -0.000006847678  1 11 12  1  2  4
      -0.000004876023  1 11 12  1  2  5
      -0.000001280098  1 11 12  1  3  4
      -0.000001078720  1 11 12  1  3  5
       0.000000092428  1 11 12  1  4  5
       0.000000914966  1 11 12  1  6  7
       0.000000914966  1 11 12  1  8  9
      -0.000080057933  1 11 12  1 10 11
       0.000022410970  1 11 12  1 10 12
      -0.000016376142  1 11 12  1 10 13
      -0.000005808841  1 11 12  1 10 14
       0.000039582312  1 11 12  1 11 12
      -0.000014120679  1 11 12  1 11 13
      -0.000008908069  1 11 12  1 11 14
       0.000006931690  1 11 12  1 12 13
       0.000014516704  1 11 12  1 12 14
      -0.000003817934  1 11 12  1 13 14
       0.000001130368  1 11 12  1 15 16
       0.000001130368  1 11 12  1 17 18
      -0.000000077089  1 11 12  2  3  4
       0.000000076288  1 11 12  2  3  5
      -0.000000321313  1 11 12  2  4  5
       0.000000095786  1 11 12  2  6  7
       0.000000095786  1 11 12  2  8  9
      -0.000076172221  1 11 12  2 10 11
       0.000042721259  1 11 12  2 10 12
       0.000002840249  1 11 12  2 10 13
       0.000021344346  1 11 12  2 10 14
      -0.000000061165  1 11 12  2 11 12
       0.000000049895  1 11 12  2 11 13
       0.000000000000  1 11 12  2 11 14
       0.000000296216  1 11 12  2 12 13
       0.000000372784  1 11 12  2 12 14
      -0.000000059947  1 11 12  2 13 14
       0.000000106869  1 11 12  2 15 16
       0.000000106869  1 11 12  2 17 18
      -0.000000060572  1 11 12  3  4  5
       0.000000016533  1 11 12  3  6  7
       0.000000016533  1 11 12  3  8  9
      -0.000006790862  1 11 12  3 10 11
       0.000003494736  1 11 12  3 10 12
       0.000001189959  1 11 12  3 10 13
       0.000002263459  1 11 12  3 10 14
       0.000000118456  1 11 12  3 11 12
      -0.000000127431  1 11 12  3 11 13
      -0.000000141455  1 11 12  3 11 14
       0.000000144577  1 11 12  3 12 13
       0.000000188307  1 11 12  3 12 14
      -0.000000053627  1 11 12  3 13 14
       0.000000015164  1 11 12  3 15 16
       0.000000015164  1 11 12  3 17 18
      -0.000000017670  1 11 12  4  6  7
      -0.000000017670  1 11 12  4  8  9
       0.000002003433  1 11 12  4 10 11
      -0.000000392927  1 11 12  4 10 12
      -0.000000326854  1 11 12  4 10 13
       0.000000152444  1 11 12  4 10 14
      -0.000000285812  1 11 12  4 11 12
       0.000000199778  1 11 12  4 11 13
       0.000000204087  1 11 12  4 11 14
      -0.000000139836  1 11 12  4 12 13
      -0.000000219553  1 11 12  4 12 14
       0.000000065898  1 11 12  4 13 14
      -0.000000015420  1 11 12  4 15 16
      -0.000000015420  1 11 12  4 17 18
       0.000000031740  1 11 12  5  6  7
       0.000000031740  1 11 12  5  8  9
      -0.000037681847  1 11 12  5 10 11
       0.000021427900  1 11 12  5 10 12
      -0.000001801538  1 11 12  5 10 13
       0.000008273689  1 11 12  5 10 14
      -0.000000264834  1 11 12  5 11 12
       0.000000354732  1 11 12  5 11 13
       0.000000369919  1 11 12  5 11 14
      -0.000000186631  1 11 12  5 12 13
      -0.000000286909  1 11 12  5 12 14
       0.000000113155  1 11 12  5 13 14
       0.000000039130  1 11 12  5 15 16
       0.000000039130  1 11 12  5 17 18
      -0.000000200573  1 11 12  6 10 15
       0.000000897830  1 11 12  6 10 16
       0.000000000000  1 11 12  6 11 15
      -0.000000105921  1 11 12  6 11 16
       0.000000000000  1 11 12  6 12 15
       0.000000112146  1 11 12  6 12 16
       0.000000000000  1 11 12  6 13 15
       0.000000000000  1 11 12  6 13 16
       0.000000000000  1 11 12  6 14 15
       0.000000028545  1 11 12  6 14 16
      -0.000001122752  1 11 12  7 10 15
      -0.000000434378  1 11 12  7 10 16
       0.000000025070  1 11 12  7 11 15
      -0.000000102042  1 11 12  7 11 16
      -0.000000059015  1 11 12  7 12 15
       0.000000050167  1 11 12  7 12 16
       0.000000007703  1 11 12  7 13 15
       0.000000000000  1 11 12  7 13 16
       0.000000000000  1 11 12  7 14 15
       0.000000027136  1 11 12  7 14 16
      -0.000000200573  1 11 12  8 10 17
       0.000000897830  1 11 12  8 10 18
       0.000000000000  1 11 12  8 11 17
      -0.000000105921  1 11 12  8 11 18
       0.000000000000  1 11 12  8 12 17
       0.000000112146  1 11 12  8 12 18
       0.000000000000  1 11 12  8 13 17
       0.000000000000  1 11 12  8 13 18
       0.000000000000  1 11 12  8 14 17
       0.000000028545  1 11 12  8 14 18
      -0.000001122752  1 11 12  9 10 17
      -0.000000434378  1 11 12  9 10 18
       0.000000025070  1 11 12  9 11 17
      -0.000000102042  1 11 12  9 11 18
      -0.000000059015  1 11 12  9 12 17
       0.000000050167  1 11 12  9 12 18
       0.000000007703  1 11 12  9 13 17
       0.000000000000  1 11 12  9 13 18
       0.000000000000  1 11 12  9 14 17
       0.000000027136  1 11 12  9 14 18
      -0.000002866263  1 11 13  1  2  3
      -0.000004597609  1 11 13  1  2  4
       0.000000362069  1 11 13  1  2  5
      -0.000000399052  1 11 13  1  3  4
       0.000003076051  1 11 13  1  3  5
      -0.000002573578  1 11 13  1  4  5
      -0.000001068828  1 11 13  1  6  7
      -0.000001068828  1 11 13  1  8  9
       0.000469392148  1 11 13  1 10 11
      -0.000227598157  1 11 13  1 10 12
       0.000162348681  1 11 13  1 10 13
       0.000078407334  1 11 13  1 10 14
      -0.000014120679  1 11 13  1 11 12
       0.000078532120  1 11 13  1 11 13
       0.000088957090  1 11 13  1 11 14
      -0.000047997826  1 11 13  1 12 13
      -0.000058497589  1 11 13  1 12 14
       0.000023883213  1 11 13  1 13 14
      -0.000000815492  1 11 13  1 15 16
      -0.000000815492  1 11 13  1 17 18
      -0.000000023783  1 11 13  2  3  4
       0.000000013027  1 11 13  2  3  5
      -0.000000015787  1 11 13  2  4  5
       0.000000034201  1 11 13  2  6  7
       0.000000034201  1 11 13  2  8  9
      -0.000015306624  1 11 13  2 10 11
       0.000010483585  1 11 13  2 10 12
       0.000006139300  1 11 13  2 10 13
       0.000012902295  1 11 13  2 10 14
      -0.000000050214  1 11 13  2 11 12
       0.000000097034  1 11 13  2 11 13
       0.000000132648  1 11 13  2 11 14
       0.000000117844  1 11 13  2 12 13
       0.000000115246  1 11 13  2 12 14
       0.000000080388  1 11 13  2 13 14
       0.000000020929  1 11 13  2 15 16
       0.000000020929  1 11 13  2 17 18
       0.000000000000  1 11 13  3  4  5
       0.000000057314  1 11 13  3  6  7
       0.000000057314  1 11 13  3  8  9
      -0.000028481243  1 11 13  3 10 11
       0.000019698617  1 11 13  3 10 12
      -0.000001469548  1 11 13  3 10 13
       0.000008088156  1 11 13  3 10 14
      -0.000000043956  1 11 13  3 11 12
       0.000000324966  1 11 13  3 11 13
       0.000000350924  1 11 13  3 11 14
      -0.000000144873  1 11 13  3 12 13
      -0.000000162952  1 11 13  3 12 14
       0.000000082929  1 11 13  3 13 14
       0.000000034958  1 11 13  3 15 16
       0.000000034958  1 11 13  3 17 18
      -0.000000161484  1 11 13  4  6  7
      -0.000000161484  1 11 13  4  8  9
       0.000072042068  1 11 13  4 10 11
      -0.000045507050  1 11 13  4 10 12
       0.000002106925  1 11 13  4 10 13
      -0.000020187606  1 11 13  4 10 14
       0.000000120163  1 11 13  4 11 12
      -0.000000847735  1 11 13  4 11 13
      -0.000000943886  1 11 13  4 11 14
       0.000000405827  1 11 13  4 12 13
       0.000000484182  1 11 13  4 12 14
      -0.000000234909  1 11 13  4 13 14
      -0.000000095015  1 11 13  4 15 16
      -0.000000095015  1 11 13  4 17 18
      -0.000000126226  1 11 13  5  6  7
      -0.000000126226  1 11 13  5  8  9
       0.000058169406  1 11 13  5 10 11
      -0.000036804478  1 11 13  5 10 12
       0.000000698367  1 11 13  5 10 13
      -0.000017557966  1 11 13  5 10 14
       0.000000093289  1 11 13  5 11 12
      -0.000000606325  1 11 13  5 11 13
      -0.000000663003  1 11 13  5 11 14
       0.000000294819  1 11 13  5 12 13
       0.000000355443  1 11 13  5 12 14
      -0.000000181304  1 11 13  5 13 14
      -0.000000077384  1 11 13  5 15 16
      -0.000000077384  1 11 13  5 17 18
[...]
       0.000000000000 13 16 17  4  7 18
       0.000000000000 13 16 17  4  8 15
       0.000000000000 13 16 17  4  8 16
       0.000000000000 13 16 17  4  9 15
       0.000000000000 13 16 17  4  9 16
       0.000000000000 13 16 17  5  6 17
       0.000000000000 13 16 17  5  6 18
       0.000000000000 13 16 17  5  7 17
       0.000000000000 13 16 17  5  7 18
       0.000000000000 13 16 17  5  8 15
       0.000000000000 13 16 17  5  8 16
       0.000000000000 13 16 17  5  9 15
       0.000000000000 13 16 17  5  9 16
      -0.000000016438 13 16 17  6  8 10
       0.000000000000 13 16 17  6  8 11
       0.000000000000 13 16 17  6  8 12
       0.000000000000 13 16 17  6  8 13
       0.000000000000 13 16 17  6  8 14
       0.000000000000 13 16 17  6  9 10
       0.000000000000 13 16 17  6  9 11
       0.000000000000 13 16 17  6  9 12
       0.000000000000 13 16 17  6  9 13
       0.000000000000 13 16 17  6  9 14
      -0.000000068307 13 16 17  7  8 10
       0.000000000000 13 16 17  7  8 11
       0.000000000000 13 16 17  7  8 12
       0.000000000000 13 16 17  7  8 13
       0.000000000000 13 16 17  7  8 14
      -0.000000027512 13 16 17  7  9 10
       0.000000000000 13 16 17  7  9 11
       0.000000000000 13 16 17  7  9 12
       0.000000000000 13 16 17  7  9 13
       0.000000000000 13 16 17  7  9 14
       0.000000000000 13 16 17 10 15 17
       0.000000000000 13 16 17 10 15 18
      -0.000000009436 13 16 17 10 16 17
      -0.000000015757 13 16 17 10 16 18
       0.000000000000 13 16 17 11 15 17
       0.000000000000 13 16 17 11 15 18
       0.000000000000 13 16 17 11 16 17
       0.000000000000 13 16 17 11 16 18
       0.000000000000 13 16 17 12 15 17
       0.000000000000 13 16 17 12 15 18
       0.000000000000 13 16 17 12 16 17
       0.000000000000 13 16 17 12 16 18
       0.000000000000 13 16 17 13 15 17
       0.000000000000 13 16 17 13 15 18
       0.000000000000 13 16 17 13 16 17
       0.000000000000 13 16 17 13 16 18
       0.000000000000 13 16 17 14 15 17
       0.000000000000 13 16 17 14 15 18
       0.000000000000 13 16 17 14 16 17
       0.000000000000 13 16 17 14 16 18
       0.000000000000 13 16 18  1  6 17
       0.000000000000 13 16 18  1  6 18
       0.000000011862 13 16 18  1  7 17
       0.000000009209 13 16 18  1  7 18
       0.000000000000 13 16 18  1  8 15
       0.000000000000 13 16 18  1  8 16
      -0.000000011862 13 16 18  1  9 15
      -0.000000009209 13 16 18  1  9 16
       0.000000000000 13 16 18  2  6 17
       0.000000000000 13 16 18  2  6 18
       0.000000000000 13 16 18  2  7 17
       0.000000000000 13 16 18  2  7 18
       0.000000000000 13 16 18  2  8 15
       0.000000000000 13 16 18  2  8 16
       0.000000000000 13 16 18  2  9 15
       0.000000000000 13 16 18  2  9 16
       0.000000000000 13 16 18  3  6 17
       0.000000000000 13 16 18  3  6 18
       0.000000000000 13 16 18  3  7 17
       0.000000000000 13 16 18  3  7 18
       0.000000000000 13 16 18  3  8 15
       0.000000000000 13 16 18  3  8 16
       0.000000000000 13 16 18  3  9 15
       0.000000000000 13 16 18  3  9 16
       0.000000000000 13 16 18  4  6 17
       0.000000000000 13 16 18  4  6 18
       0.000000000000 13 16 18  4  7 17
       0.000000000000 13 16 18  4  7 18
       0.000000000000 13 16 18  4  8 15
       0.000000000000 13 16 18  4  8 16
       0.000000000000 13 16 18  4  9 15
       0.000000000000 13 16 18  4  9 16
       0.000000000000 13 16 18  5  6 17
       0.000000000000 13 16 18  5  6 18
       0.000000000000 13 16 18  5  7 17
       0.000000000000 13 16 18  5  7 18
       0.000000000000 13 16 18  5  8 15
       0.000000000000 13 16 18  5  8 16
       0.000000000000 13 16 18  5  9 15
       0.000000000000 13 16 18  5  9 16
       0.000000000000 13 16 18  6  8 10
       0.000000000000 13 16 18  6  8 11
       0.000000000000 13 16 18  6  8 12
       0.000000000000 13 16 18  6  8 13
       0.000000000000 13 16 18  6  8 14
       0.000000000000 13 16 18  6  9 10
       0.000000000000 13 16 18  6  9 11
       0.000000000000 13 16 18  6  9 12
       0.000000000000 13 16 18  6  9 13
       0.000000000000 13 16 18  6  9 14
       0.000000000000 13 16 18  7  8 10
       0.000000000000 13 16 18  7  8 11
       0.000000000000 13 16 18  7  8 12
       0.000000000000 13 16 18  7  8 13
       0.000000000000 13 16 18  7  8 14
       0.000000032487 13 16 18  7  9 10
       0.000000016211 13 16 18  7  9 11
      -0.000000010101 13 16 18  7  9 12
       0.000000000000 13 16 18  7  9 13
       0.000000000000 13 16 18  7  9 14
       0.000000000000 13 16 18 10 15 17
      -0.000000023550 13 16 18 10 15 18
      -0.000000023550 13 16 18 10 16 17
      -0.000000072061 13 16 18 10 16 18
       0.000000000000 13 16 18 11 15 17
       0.000000000000 13 16 18 11 15 18
       0.000000000000 13 16 18 11 16 17
      -0.000000025806 13 16 18 11 16 18
       0.000000000000 13 16 18 12 15 17
       0.000000000000 13 16 18 12 15 18
       0.000000000000 13 16 18 12 16 17
       0.000000017869 13 16 18 12 16 18
       0.000000000000 13 16 18 13 15 17
       0.000000000000 13 16 18 13 15 18
       0.000000000000 13 16 18 13 16 17
       0.000000000000 13 16 18 13 16 18
       0.000000000000 13 16 18 14 15 17
       0.000000000000 13 16 18 14 15 18
       0.000000000000 13 16 18 14 16 17
       0.000000000000 13 16 18 14 16 18
       0.000000000000 14 15 17  1  6 17
       0.000000015351 14 15 17  1  6 18
       0.000000000000 14 15 17  1  7 17
       0.000000000000 14 15 17  1  7 18
       0.000000000000 14 15 17  1  8 15
      -0.000000015351 14 15 17  1  8 16
       0.000000000000 14 15 17  1  9 15
       0.000000000000 14 15 17  1  9 16
       0.000000000000 14 15 17  2  6 17
       0.000000000000 14 15 17  2  6 18
       0.000000000000 14 15 17  2  7 17
       0.000000000000 14 15 17  2  7 18
       0.000000000000 14 15 17  2  8 15
       0.000000000000 14 15 17  2  8 16
       0.000000000000 14 15 17  2  9 15
       0.000000000000 14 15 17  2  9 16
       0.000000000000 14 15 17  3  6 17
       0.000000000000 14 15 17  3  6 18
       0.000000000000 14 15 17  3  7 17
       0.000000000000 14 15 17  3  7 18
       0.000000000000 14 15 17  3  8 15
       0.000000000000 14 15 17  3  8 16
       0.000000000000 14 15 17  3  9 15
       0.000000000000 14 15 17  3  9 16
       0.000000000000 14 15 17  4  6 17
       0.000000000000 14 15 17  4  6 18
       0.000000000000 14 15 17  4  7 17
       0.000000000000 14 15 17  4  7 18
       0.000000000000 14 15 17  4  8 15
       0.000000000000 14 15 17  4  8 16
       0.000000000000 14 15 17  4  9 15
       0.000000000000 14 15 17  4  9 16
       0.000000000000 14 15 17  5  6 17
       0.000000000000 14 15 17  5  6 18
       0.000000000000 14 15 17  5  7 17
       0.000000000000 14 15 17  5  7 18
       0.000000000000 14 15 17  5  8 15
       0.000000000000 14 15 17  5  8 16
       0.000000000000 14 15 17  5  9 15
       0.000000000000 14 15 17  5  9 16
       0.000000000000 14 15 17  6  8 10
       0.000000000000 14 15 17  6  8 11
       0.000000000000 14 15 17  6  8 12
       0.000000000000 14 15 17  6  8 13
       0.000000000000 14 15 17  6  8 14
      -0.000000016041 14 15 17  6  9 10
       0.000000000000 14 15 17  6  9 11
       0.000000000000 14 15 17  6  9 12
       0.000000000000 14 15 17  6  9 13
       0.000000000000 14 15 17  6  9 14
      -0.000000016041 14 15 17  7  8 10
       0.000000000000 14 15 17  7  8 11
       0.000000000000 14 15 17  7  8 12
       0.000000000000 14 15 17  7  8 13
       0.000000000000 14 15 17  7  8 14
      -0.000000017070 14 15 17  7  9 10
       0.000000000000 14 15 17  7  9 11
       0.000000000000 14 15 17  7  9 12
       0.000000000000 14 15 17  7  9 13
       0.000000000000 14 15 17  7  9 14
       0.000000000000 14 15 17 10 15 17
       0.000000000000 14 15 17 10 15 18
       0.000000000000 14 15 17 10 16 17
       0.000000007748 14 15 17 10 16 18
       0.000000000000 14 15 17 11 15 17
       0.000000000000 14 15 17 11 15 18
       0.000000000000 14 15 17 11 16 17
       0.000000000000 14 15 17 11 16 18
       0.000000000000 14 15 17 12 15 17
       0.000000000000 14 15 17 12 15 18
       0.000000000000 14 15 17 12 16 17
       0.000000000000 14 15 17 12 16 18
       0.000000000000 14 15 17 13 15 17
       0.000000000000 14 15 17 13 15 18
       0.000000000000 14 15 17 13 16 17
       0.000000000000 14 15 17 13 16 18
       0.000000000000 14 15 17 14 15 17
       0.000000000000 14 15 17 14 15 18
       0.000000000000 14 15 17 14 16 17
       0.000000000000 14 15 17 14 16 18
       0.000000012503 14 15 18  1  6 17
       0.000000153586 14 15 18  1  6 18
       0.000000000000 14 15 18  1  7 17
       0.000000066777 14 15 18  1  7 18
       0.000000000000 14 15 18  1  8 15
      -0.000000045170 14 15 18  1  8 16
       0.000000000000 14 15 18  1  9 15
      -0.000000013534 14 15 18  1  9 16
       0.000000000000 14 15 18  2  6 17
       0.000000000000 14 15 18  2  6 18
       0.000000000000 14 15 18  2  7 17
       0.000000000000 14 15 18  2  7 18
       0.000000000000 14 15 18  2  8 15
       0.000000000000 14 15 18  2  8 16
       0.000000000000 14 15 18  2  9 15
       0.000000000000 14 15 18  2  9 16
       0.000000000000 14 15 18  3  6 17
       0.000000000000 14 15 18  3  6 18
       0.000000000000 14 15 18  3  7 17
       0.000000000000 14 15 18  3  7 18
       0.000000000000 14 15 18  3  8 15
       0.000000000000 14 15 18  3  8 16
       0.000000000000 14 15 18  3  9 15
       0.000000000000 14 15 18  3  9 16
       0.000000000000 14 15 18  4  6 17
       0.000000000000 14 15 18  4  6 18
       0.000000000000 14 15 18  4  7 17
       0.000000000000 14 15 18  4  7 18
       0.000000000000 14 15 18  4  8 15
       0.000000000000 14 15 18  4  8 16
       0.000000000000 14 15 18  4  9 15
       0.000000000000 14 15 18  4  9 16
       0.000000000000 14 15 18  5  6 17
       0.000000000000 14 15 18  5  6 18
       0.000000000000 14 15 18  5  7 17
       0.000000000000 14 15 18  5  7 18
       0.000000000000 14 15 18  5  8 15
       0.000000000000 14 15 18  5  8 16
       0.000000000000 14 15 18  5  9 15
       0.000000000000 14 15 18  5  9 16
      -0.000000044209 14 15 18  6  8 10
       0.000000000000 14 15 18  6  8 11
       0.000000000000 14 15 18  6  8 12
       0.000000000000 14 15 18  6  8 13
       0.000000000000 14 15 18  6  8 14
      -0.000000145339 14 15 18  6  9 10
       0.000000000000 14 15 18  6  9 11
       0.000000000000 14 15 18  6  9 12
       0.000000000000 14 15 18  6  9 13
       0.000000000000 14 15 18  6  9 14
      -0.000000065813 14 15 18  7  8 10
       0.000000000000 14 15 18  7  8 11
       0.000000000000 14 15 18  7  8 12
       0.000000000000 14 15 18  7  8 13
       0.000000000000 14 15 18  7  8 14
      -0.000000113833 14 15 18  7  9 10
      -0.000000009727 14 15 18  7  9 11
       0.000000007591 14 15 18  7  9 12
       0.000000000000 14 15 18  7  9 13
       0.000000000000 14 15 18  7  9 14
       0.000000000000 14 15 18 10 15 17
       0.000000009970 14 15 18 10 15 18
       0.000000012739 14 15 18 10 16 17
       0.000000053021 14 15 18 10 16 18
       0.000000000000 14 15 18 11 15 17
       0.000000000000 14 15 18 11 15 18
       0.000000000000 14 15 18 11 16 17
       0.000000011936 14 15 18 11 16 18
       0.000000000000 14 15 18 12 15 17
       0.000000000000 14 15 18 12 15 18
       0.000000000000 14 15 18 12 16 17
      -0.000000008776 14 15 18 12 16 18
       0.000000000000 14 15 18 13 15 17
       0.000000000000 14 15 18 13 15 18
       0.000000000000 14 15 18 13 16 17
       0.000000000000 14 15 18 13 16 18
       0.000000000000 14 15 18 14 15 17
       0.000000000000 14 15 18 14 15 18
       0.000000000000 14 15 18 14 16 17
      -0.000000006413 14 15 18 14 16 18
       0.000000000000 14 16 17  1  6 17
       0.000000045170 14 16 17  1  6 18
       0.000000000000 14 16 17  1  7 17
       0.000000013534 14 16 17  1  7 18
      -0.000000012503 14 16 17  1  8 15
      -0.000000153586 14 16 17  1  8 16
       0.000000000000 14 16 17  1  9 15
      -0.000000066777 14 16 17  1  9 16
       0.000000000000 14 16 17  2  6 17
       0.000000000000 14 16 17  2  6 18
       0.000000000000 14 16 17  2  7 17
       0.000000000000 14 16 17  2  7 18
       0.000000000000 14 16 17  2  8 15
       0.000000000000 14 16 17  2  8 16
       0.000000000000 14 16 17  2  9 15
       0.000000000000 14 16 17  2  9 16
       0.000000000000 14 16 17  3  6 17
       0.000000000000 14 16 17  3  6 18
       0.000000000000 14 16 17  3  7 17
       0.000000000000 14 16 17  3  7 18
       0.000000000000 14 16 17  3  8 15
       0.000000000000 14 16 17  3  8 16
       0.000000000000 14 16 17  3  9 15
       0.000000000000 14 16 17  3  9 16
       0.000000000000 14 16 17  4  6 17
       0.000000000000 14 16 17  4  6 18
       0.000000000000 14 16 17  4  7 17
       0.000000000000 14 16 17  4  7 18
       0.000000000000 14 16 17  4  8 15
       0.000000000000 14 16 17  4  8 16
       0.000000000000 14 16 17  4  9 15
       0.000000000000 14 16 17  4  9 16
       0.000000000000 14 16 17  5  6 17
       0.000000000000 14 16 17  5  6 18
       0.000000000000 14 16 17  5  7 17
       0.000000000000 14 16 17  5  7 18
       0.000000000000 14 16 17  5  8 15
       0.000000000000 14 16 17  5  8 16
       0.000000000000 14 16 17  5  9 15
       0.000000000000 14 16 17  5  9 16
      -0.000000044209 14 16 17  6  8 10
       0.000000000000 14 16 17  6  8 11
       0.000000000000 14 16 17  6  8 12
       0.000000000000 14 16 17  6  8 13
       0.000000000000 14 16 17  6  8 14
      -0.000000065813 14 16 17  6  9 10
       0.000000000000 14 16 17  6  9 11
       0.000000000000 14 16 17  6  9 12
       0.000000000000 14 16 17  6  9 13
       0.000000000000 14 16 17  6  9 14
      -0.000000145339 14 16 17  7  8 10
       0.000000000000 14 16 17  7  8 11
       0.000000000000 14 16 17  7  8 12
       0.000000000000 14 16 17  7  8 13
       0.000000000000 14 16 17  7  8 14
      -0.000000113833 14 16 17  7  9 10
      -0.000000009727 14 16 17  7  9 11
       0.000000007591 14 16 17  7  9 12
       0.000000000000 14 16 17  7  9 13
       0.000000000000 14 16 17  7  9 14
       0.000000000000 14 16 17 10 15 17
       0.000000012739 14 16 17 10 15 18
       0.000000009970 14 16 17 10 16 17
       0.000000053021 14 16 17 10 16 18
       0.000000000000 14 16 17 11 15 17
       0.000000000000 14 16 17 11 15 18
       0.000000000000 14 16 17 11 16 17
       0.000000011936 14 16 17 11 16 18
       0.000000000000 14 16 17 12 15 17
       0.000000000000 14 16 17 12 15 18
       0.000000000000 14 16 17 12 16 17
      -0.000000008776 14 16 17 12 16 18
       0.000000000000 14 16 17 13 15 17
       0.000000000000 14 16 17 13 15 18
       0.000000000000 14 16 17 13 16 17
       0.000000000000 14 16 17 13 16 18
       0.000000000000 14 16 17 14 15 17
       0.000000000000 14 16 17 14 15 18
       0.000000000000 14 16 17 14 16 17
      -0.000000006413 14 16 17 14 16 18
       0.000000028182 14 16 18  1  6 17
       0.000000429268 14 16 18  1  6 18
      -0.000000035903 14 16 18  1  7 17
       0.000000172519 14 16 18  1  7 18
      -0.000000028182 14 16 18  1  8 15
      -0.000000429268 14 16 18  1  8 16
       0.000000035903 14 16 18  1  9 15
      -0.000000172519 14 16 18  1  9 16
       0.000000000000 14 16 18  2  6 17
      -0.000000010697 14 16 18  2  6 18
       0.000000000000 14 16 18  2  7 17
       0.000000000000 14 16 18  2  7 18
       0.000000000000 14 16 18  2  8 15
       0.000000010697 14 16 18  2  8 16
       0.000000000000 14 16 18  2  9 15
       0.000000000000 14 16 18  2  9 16
       0.000000000000 14 16 18  3  6 17
       0.000000000000 14 16 18  3  6 18
       0.000000000000 14 16 18  3  7 17
       0.000000000000 14 16 18  3  7 18
       0.000000000000 14 16 18  3  8 15
       0.000000000000 14 16 18  3  8 16
       0.000000000000 14 16 18  3  9 15
       0.000000000000 14 16 18  3  9 16
       0.000000000000 14 16 18  4  6 17
       0.000000000000 14 16 18  4  6 18
       0.000000000000 14 16 18  4  7 17
       0.000000000000 14 16 18  4  7 18
       0.000000000000 14 16 18  4  8 15
       0.000000000000 14 16 18  4  8 16
       0.000000000000 14 16 18  4  9 15
       0.000000000000 14 16 18  4  9 16
       0.000000000000 14 16 18  5  6 17
      -0.000000006333 14 16 18  5  6 18
       0.000000000000 14 16 18  5  7 17
       0.000000000000 14 16 18  5  7 18
       0.000000000000 14 16 18  5  8 15
       0.000000006333 14 16 18  5  8 16
       0.000000000000 14 16 18  5  9 15
       0.000000000000 14 16 18  5  9 16
      -0.000000194089 14 16 18  6  8 10
      -0.000000007147 14 16 18  6  8 11
       0.000000006888 14 16 18  6  8 12
       0.000000000000 14 16 18  6  8 13
       0.000000000000 14 16 18  6  8 14
      -0.000000462045 14 16 18  6  9 10
      -0.000000023935 14 16 18  6  9 11
       0.000000021824 14 16 18  6  9 12
       0.000000000000 14 16 18  6  9 13
       0.000000013081 14 16 18  6  9 14
      -0.000000462045 14 16 18  7  8 10
      -0.000000023935 14 16 18  7  8 11
       0.000000021824 14 16 18  7  8 12
       0.000000000000 14 16 18  7  8 13
       0.000000013081 14 16 18  7  8 14
      -0.000000541942 14 16 18  7  9 10
      -0.000000078249 14 16 18  7  9 11
       0.000000059888 14 16 18  7  9 12
       0.000000000000 14 16 18  7  9 13
       0.000000038107 14 16 18  7  9 14
       0.000000014435 14 16 18 10 15 17
       0.000000095306 14 16 18 10 15 18
       0.000000095306 14 16 18 10 16 17
       0.000000338725 14 16 18 10 16 18
       0.000000000000 14 16 18 11 15 17
       0.000000011205 14 16 18 11 15 18
       0.000000011205 14 16 18 11 16 17
       0.000000102530 14 16 18 11 16 18
       0.000000000000 14 16 18 12 15 17
      -0.000000009056 14 16 18 12 15 18
      -0.000000009056 14 16 18 12 16 17
      -0.000000076865 14 16 18 12 16 18
       0.000000000000 14 16 18 13 15 17
       0.000000000000 14 16 18 13 15 18
       0.000000000000 14 16 18 13 16 17
       0.000000000000 14 16 18 13 16 18
       0.000000000000 14 16 18 14 15 17
      -0.000000006413 14 16 18 14 15 18
      -0.000000006413 14 16 18 14 16 17
      -0.000000055387 14 16 18 14 16 18
 /EOF
 !FCI STATE  1.1 Dipole moment          0.00000000     0.00000000     0.00000000
 Dipole moment /Debye                   0.00000000     0.00000000     0.00000000


 **********************************************************************************************************************************
 DATASETS  * FILE   NREC   LENGTH (MB)   RECORD NAMES
              1      19       29.97       500      700      610      900      950      970     1000      129      960     1100   
                                          VAR     GEOM    BASINP   SYMINP    ZMAT    AOBASIS   BASIS     P2S    ABASIS      S 
                                         1400     1410     1200     1210     1080     1600     1650     1300     1700   
                                           T        V       H0       H01     AOSYM     SMH    MOLCAS    ERIS     OPER   

              3       5       14.77       500      610      700     1000     2100   
                                          VAR    BASINP    GEOM     BASIS     RHF  

 PROGRAMS   *        TOTAL       FCI       INT   RESTART
 CPU TIMES  *         1.72      1.36      0.21      0.01
 REAL TIME  *         1.94 SEC
 DISK USED  *        60.68 MB
 **********************************************************************************************************************************
 Molecular orbitals read from record     2100.3  Type=RHF/CANONICAL (state 1.1)
 Occupation numbers read from record     2100.3  Type=RHF/RHF (state 1.1)
 Orbital energies read from record       2100.3  Type=RHF/CANONICAL (state 1.1)
 Redundancy group numbers read from rec  2100.3  Type=RHF/RHF (state 1.1)

 FCI/6-31G energy=    -14.893362202227

             FCI
    -14.89336220
 **********************************************************************************************************************************
 Molpro calculation terminated
