
 Primary working directories    : /scr/yuriaoto/job.023248/molpro.WQhw5wc25s
 Secondary working directories  : /scr/yuriaoto/job.023248/molpro.WQhw5wc25s
 Wavefunction directory         : /scr/yuriaoto/job.023248/
 Main file repository           : /scr/yuriaoto/job.023248/molpro.WQhw5wc25s/

 id        : yuriaoto

 Nodes             nprocs
 t-rex.ufabc.int.br    1

 Using customized tuning parameters: mindgm=8; mindgv=16; mindgc=1; mindgr=1; noblas=0; minvec=7
 default implementation of scratch files=df  


 Variables initialized (933), CPU time= 0.00 sec
 ***,
 memory,40,m
 gprint,orbital,basis,civector
 gthresh,thrprint=0,printci=0.0
 file,3,wfu.dat,old
 
 {cisd,CC_NORM_MAX=10.0
 thresh,printci=0.0,ENERGY=1.0E-10,COEFF=1.0E-12
 print,ref=1
 core,0
 wf,6,1,0;
 }
 
 Commands  initialized (760), CPU time= 0.01 sec, 617 directives.
 Default parameters read. Elapsed time= 0.04 sec

 Checking input...
 Passed
1


                                         ***  PROGRAM SYSTEM MOLPRO  ***
                                       Copyright, TTI GmbH Stuttgart, 2015
                                    Version 2019.2 linked Abr  7 2019 15:10:35


 **********************************************************************************************************************************
 LABEL *                                                                                 
  64 bit serial version                                                                  DATE: 30-May-20          TIME: 20:25:31  
 **********************************************************************************************************************************

 SHA1:             3a8a58c585c929645742fb5a1b7541a4ad1da699
 **********************************************************************************************************************************


 THRESHOLDS:

 ZERO    =  1.00D-12  ONEINT  =  1.00D-12  TWOINT  =  1.00D-11  PREFAC  =  1.00D-14  XXXXXX  =  1.00D-09  EORDER  =  1.00D-04
 ENERGY  =  0.00D+00  ETEST   =  0.00D+00  EDENS   =  0.00D+00  THRDEDEF=  1.00D-06  GRADIENT=  1.00D-02  STEP    =  1.00D-03
 ORBITAL =  1.00D-05  CIVEC   =  1.00D-05  COEFF   =  1.00D-04  PRINTCI =  0.00D+00  PUNCHCI =  9.90D+01  OPTGRAD =  3.00D-04
 OPTENERG=  1.00D-06  OPTSTEP =  3.00D-04  THRGRAD =  1.00D-10  COMPRESS=  1.00D-11  VARMIN  =  1.00D-07  VARMAX  =  1.00D-03
 THRDOUB =  0.00D+00  THRDIV  =  1.00D-05  THRRED  =  1.00D-07  THRPSP  =  1.00D+00  THRDC   =  1.00D-10  THRCS   =  1.00D-10
 THRNRM  =  1.00D-08  THREQ   =  0.00D+00  THRDE   =  1.00D+00  THRREF  =  1.00D-05  SPARFAC =  1.00D+00  THRDLP  =  1.00D-07
 THRDIA  =  1.00D-10  THRDLS  =  1.00D-07  THRGPS  =  0.00D+00  THRKEX  =  0.00D+00  THRDIS  =  2.00D-01  THRVAR  =  1.00D-10
 THRLOC  =  1.00D-06  THRGAP  =  1.00D-06  THRLOCT = -1.00D+00  THRGAPT = -1.00D+00  THRORB  =  1.00D-06  THRMLTP =  0.00D+00
 THRCPQCI=  1.00D-10  KEXTA   =  0.00D+00  THRCOARS=  0.00D+00  SYMTOL  =  1.00D-06  GRADTOL =  1.00D-06  THROVL  =  1.00D-08
 THRORTH =  1.00D-08  GRID    =  1.00D-06  GRIDMAX =  1.00D-03  DTMAX   =  0.00D+00  THROCCDE=  1.00D-01  THROCCDE=  1.00D-01
 THRPRINT=  0.00D+00


 Variable memory set to   40000000 words,  buffer space 



 Permanent file  3  wfu.dat  assigned.  Implementation=df    Size= 14.09 MB


 PROGRAM * RESTART 


 Reading variables from file 3

 _FNUC           =      0.00000000
 _BASIS          =    CC-PVDZ
 _NELEC          =      6.00000000
 _PROGRAM        =    RHF-SCF
 _DMX            =      0.00000000
 _DMY            =     -0.00000000
 _DMX_SCF        =      0.00000000
 _DMY_SCF        =     -0.00000000
 _DMZ_SCF        =      0.00000000
 _HOMO           =      2.10000000
 _EHOMO          =     -0.18089003
 _LUMO           =      2.20000000
 _ELUMO          =      0.00860175
 _ENERGY         =    -14.86923112
 _ENERGY_METHOD  =    RHF
 _ENERGY_BASIS   =    cc-pVDZ
 _ENUC           =      1.80000000
 _EPS1(1:14)     =     -2.44754692    -0.18089003     0.03216991     0.03216991     0.04506451     0.14188695
                        0.16180289     0.16180289     0.17633377     0.31871808     0.31871808     0.35571558
                        0.35571558     0.45987531
 _EPS2(1:14)     =     -2.44716908     0.00860175     0.06717723     0.06717723     0.08426831     0.21640604
                        0.21640604     0.25807888     0.31859242     0.39752665     0.39752665     0.51855068
                        0.51855068     0.94057166
 _IPROC_MPP      =      0.00000000
 _IPROC_MPPX     =      0.00000000
 _ORBITAL        =   2100.30000000
 _STATUS         =      1.00000000
 _DATE           =    21-Oct-19
 _LASTORB        =    RHF
 _OUTPUT         =    /scr/yuriaoto/job.022417/RHF.xml
 _PGROUP         =    Cs  
 _TIME           =    10:51:54
 R               =      5.00000000

 Geometry written to block  1 of record 700


 **********************************************************************************************************************************
 DATASETS  * FILE   NREC   LENGTH (MB)   RECORD NAMES
              3       5       14.78       500      610      700     1000     2100   
                                          VAR    BASINP    GEOM     BASIS     RHF  

 PROGRAMS   *        TOTAL   RESTART
 CPU TIMES  *         0.11      0.01
 REAL TIME  *         0.14 SEC
 DISK USED  *        26.85 MB
 **********************************************************************************************************************************


 Recomputing integrals since basis changed


 Using spherical harmonics

 Library entry LI     S cc-pVDZ              selected for orbital group  1
 Library entry LI     P cc-pVDZ              selected for orbital group  1
 Library entry LI     D cc-pVDZ              selected for orbital group  1


 PROGRAM * SEWARD (Integral evaluation for generally contracted gaussian basis sets)     Author: Roland Lindh, 1990

 Geometry written to block  1 of record 700

 Orientation using atomic masses  
 Molecule type: Linear
 User-specified symmetry elements: Z
 Symmetry elements: Z
 Rotational constants:      20.8009354     20.8009354      0.0000000 GHz  (calculated with average atomic masses)

 Point group  Cs  



 ATOMIC COORDINATES

 NR  ATOM    CHARGE       X              Y              Z

   1  LI1     3.00    0.000000000    0.000000000   -2.500000000
   2  LI2     3.00    0.000000000    0.000000000    2.500000000

 Bond lengths in Bohr (Angstrom)

 1-2  5.000000000
     ( 2.645886055)


 BASIS DATA

   Nr Sym  Nuc  Type         Exponents   Contraction coefficients

    1.1 A'    1  1s        1469.000000     0.000766   -0.000120    0.000000
    2.1 A'    2  1s         220.500000     0.005892   -0.000923    0.000000
    3.1 A'                   50.260000     0.029671   -0.004689    0.000000
                             14.240000     0.109180   -0.017682    0.000000
                              4.581000     0.282789   -0.048902    0.000000
                              1.580000     0.453123   -0.096009    0.000000
                              0.564000     0.274774   -0.136380    0.000000
                              0.073450     0.009751    0.575102    0.000000
                              0.028050    -0.003180    0.517661    1.000000
    4.1 A'    1  2px          1.534000     0.022784
              2  2px          0.274900     0.139107
                              0.073620     0.500375
                              0.024030     0.508474
    5.1 A'    1  2py          1.534000     0.022784
              2  2py          0.274900     0.139107
                              0.073620     0.500375
                              0.024030     0.508474
    6.1 A'    1  2pz          1.534000     0.022784
              2 -2pz          0.274900     0.139107
                              0.073620     0.500375
                              0.024030     0.508474
    7.1 A'    1  2px          1.534000     0.000000
              2  2px          0.274900     0.000000
                              0.073620     0.000000
                              0.024030     1.000000
    8.1 A'    1  2py          1.534000     0.000000
              2  2py          0.274900     0.000000
                              0.073620     0.000000
                              0.024030     1.000000
    9.1 A'    1  2pz          1.534000     0.000000
              2 -2pz          0.274900     0.000000
                              0.073620     0.000000
                              0.024030     1.000000
   10.1 A'    1  3d0          0.114400     1.000000
              2  3d0   
   11.1 A'    1  3d2-         0.114400     1.000000
              2  3d2-  
   12.1 A'    1  3d2+         0.114400     1.000000
              2  3d2+  
   13.1 A'    1  3d1+         0.114400     1.000000
              2 -3d1+  
   14.1 A'    1  3d1-         0.114400     1.000000
              2 -3d1-  
    1.2 A"    1  1s        1469.000000     0.000766   -0.000120    0.000000
    2.2 A"    2 -1s         220.500000     0.005892   -0.000923    0.000000
    3.2 A"                   50.260000     0.029671   -0.004689    0.000000
                             14.240000     0.109180   -0.017682    0.000000
                              4.581000     0.282789   -0.048902    0.000000
                              1.580000     0.453123   -0.096009    0.000000
                              0.564000     0.274774   -0.136380    0.000000
                              0.073450     0.009751    0.575102    0.000000
                              0.028050    -0.003180    0.517661    1.000000
    4.2 A"    1  2pz          1.534000     0.022784
              2  2pz          0.274900     0.139107
                              0.073620     0.500375
                              0.024030     0.508474
    5.2 A"    1  2px          1.534000     0.022784
              2 -2px          0.274900     0.139107
                              0.073620     0.500375
                              0.024030     0.508474
    6.2 A"    1  2py          1.534000     0.022784
              2 -2py          0.274900     0.139107
                              0.073620     0.500375
                              0.024030     0.508474
    7.2 A"    1  2pz          1.534000     0.000000
              2  2pz          0.274900     0.000000
                              0.073620     0.000000
                              0.024030     1.000000
    8.2 A"    1  2px          1.534000     0.000000
              2 -2px          0.274900     0.000000
                              0.073620     0.000000
                              0.024030     1.000000
    9.2 A"    1  2py          1.534000     0.000000
              2 -2py          0.274900     0.000000
                              0.073620     0.000000
                              0.024030     1.000000
   10.2 A"    1  3d1+         0.114400     1.000000
              2  3d1+  
   11.2 A"    1  3d1-         0.114400     1.000000
              2  3d1-  
   12.2 A"    1  3d0          0.114400     1.000000
              2 -3d0   
   13.2 A"    1  3d2-         0.114400     1.000000
              2 -3d2-  
   14.2 A"    1  3d2+         0.114400     1.000000
              2 -3d2+  

 NUCLEAR CHARGE:                    6
 NUMBER OF PRIMITIVE AOS:          54
 NUMBER OF SYMMETRY AOS:           52
 NUMBER OF CONTRACTIONS:           28   (   14A'  +   14A"  )
 NUMBER OF CORE ORBITALS:           2   (    1A'  +    1A"  )
 NUMBER OF VALENCE ORBITALS:        8   (    4A'  +    4A"  )


 NUCLEAR REPULSION ENERGY    1.80000000

 EXTRA SYMMETRY OF AOS IN SYMMETRY 1:   1 1 1 2 3 1 2 3 1 1   4 5 2 3
 EXTRA SYMMETRY OF AOS IN SYMMETRY 2:   1 1 1 1 2 3 1 2 3 2   3 1 4 5

 Eigenvalues of metric

         1 0.313E-01 0.101E+00 0.135E+00 0.135E+00 0.792E+00 0.106E+01 0.116E+01 0.124E+01
         2 0.256E-02 0.901E-02 0.586E-01 0.586E-01 0.995E-01 0.230E+00 0.230E+00 0.761E+00


 Contracted 2-electron integrals neglected if value below      1.0D-11
 AO integral compression algorithm  1   Integral accuracy      1.0D-11

     0.262 MB (compressed) written to integral file ( 35.0%)


 NUMBER OF SORTED TWO-ELECTRON INTEGRALS:      44205.     BUFFER LENGTH:  32768
 NUMBER OF SEGMENTS:   1  SEGMENT LENGTH:      44205      RECORD LENGTH: 524288

 Memory used in sort:       0.60 MW

 SORT1 READ      102344. AND WROTE       11237. INTEGRALS IN      1 RECORDS. CPU TIME:     0.01 SEC, REAL TIME:     0.00 SEC
 SORT2 READ       11237. AND WROTE       44205. INTEGRALS IN      1 RECORDS. CPU TIME:     0.01 SEC, REAL TIME:     0.02 SEC

 FILE SIZES:   FILE 1:    30.2 MBYTE,  FILE 4:     4.2 MBYTE,   TOTAL:     34.5 MBYTE

 OPERATOR DM      FOR CENTER  0  COORDINATES:    0.000000    0.000000    0.000000


 **********************************************************************************************************************************
 DATASETS  * FILE   NREC   LENGTH (MB)   RECORD NAMES
              1      19       30.04       500      700      610      900      950      970     1000      129      960     1100   
                                          VAR     GEOM    BASINP   SYMINP    ZMAT    AOBASIS   BASIS     P2S    ABASIS      S 
                                         1400     1410     1200     1210     1080     1600     1650     1300     1700   
                                           T        V       H0       H01     AOSYM     SMH    MOLCAS    ERIS     OPER   

              3       5       14.78       500      610      700     1000     2100   
                                          VAR    BASINP    GEOM     BASIS     RHF  

 PROGRAMS   *        TOTAL       INT   RESTART
 CPU TIMES  *         0.28      0.16      0.01
 REAL TIME  *         0.45 SEC
 DISK USED  *        49.46 MB
 **********************************************************************************************************************************


 PROGRAM * CISD (Closed-shell CI(SD))     Authors: C. Hampel, H.-J. Werner, 1991, M. Deegan, P.J. Knowles, 1992


 Input parameters for THRESH:

 ENERGY   =    1.00D-10
 COEFF    =    1.00D-12
 PRINTCI  =    0.000000
 THRPRINT =    0.000000

 Convergence thresholds:  THRVAR = 1.00D-24  THRDEN = 1.00D-10

 Number of closed-shell orbitals:   3 (   2   1 )
 Number of external orbitals:      25 (  12  13 )

 Molecular orbitals read from record     2100.3  Type=RHF/CANONICAL (state 1.1)

 Number of N-1 electron functions:               3
 Number of N-2 electron functions:               6
 Number of singly external CSFs:                37
 Number of doubly external CSFs:              1444
 Total number of CSFs:                        1482

 Length of J-op  integral file:               0.00 MB
 Length of K-op  integral file:               0.06 MB

 Integral transformation finished. Total CPU:   0.00 sec, npass=  1  Memory used:   0.07 MW

 Reference energy:                    -14.86923112

 MP2 singlet pair energy:              -0.01997317
 MP2 triplet pair energy:              -0.00016887
 MP2 correlation energy:               -0.02014205
 MP2 total energy:                    -14.88937317

 SCS-MP2 correlation energy:           -0.02407288   (PS=  1.200000  PT=  0.333333)
 SCS-MP2 total energy:                -14.89330400

 ITER.      SQ.NORM     CORR.ENERGY   TOTAL ENERGY   ENERGY CHANGE        DEN1      VAR(S)    VAR(P)  DIIS     TIME  TIME/IT
   1      1.05140246    -0.02821054   -14.89744166    -0.00806849    -0.00441309  0.64D-04  0.28D-02  1  1     0.02     0.01
   2      1.08458944    -0.02963257   -14.89886370    -0.00142204    -0.00534702  0.38D-04  0.27D-03  2  2     0.03     0.01
   3      1.10063558    -0.03167805   -14.90090917    -0.00204547    -0.00184867  0.34D-05  0.55D-04  3  3     0.03     0.01
   4      1.10395723    -0.03195580   -14.90118692    -0.00027775    -0.00016872  0.11D-05  0.12D-04  4  4     0.04     0.01
   5      1.10504073    -0.03199514   -14.90122626    -0.00003934    -0.00002656  0.26D-06  0.13D-05  5  5     0.04     0.01
   6      1.10563696    -0.03200515   -14.90123627    -0.00001001    -0.00005741  0.15D-06  0.28D-06  6  6     0.04     0.01
   7      1.10570762    -0.03200643   -14.90123755    -0.00000128    -0.00000297  0.75D-07  0.54D-07  6  1     0.05     0.00
   8      1.10573138    -0.03200672   -14.90123784    -0.00000029    -0.00000043  0.22D-07  0.14D-07  6  2     0.05     0.00
   9      1.10571805    -0.03200682   -14.90123794    -0.00000010     0.00000214  0.45D-08  0.21D-08  6  3     0.06     0.00
  10      1.10572808    -0.03200685   -14.90123797    -0.00000003    -0.00000146  0.61D-09  0.30D-09  6  4     0.06     0.00
  11      1.10573289    -0.03200686   -14.90123798    -0.00000001    -0.00000067  0.10D-09  0.73D-10  6  5     0.06     0.00
  12      1.10573482    -0.03200686   -14.90123798    -0.00000000    -0.00000026  0.11D-10  0.22D-10  6  6     0.07     0.00
  13      1.10573391    -0.03200686   -14.90123798    -0.00000000     0.00000008  0.53D-12  0.64D-11  6  1     0.07     0.00
  14      1.10573237    -0.03200686   -14.90123798    -0.00000000     0.00000014  0.12D-12  0.13D-11  6  2     0.08     0.00
  15      1.10573163    -0.03200686   -14.90123798    -0.00000000     0.00000006  0.17D-12  0.31D-12  6  3     0.08     0.00
  16      1.10573135    -0.03200686   -14.90123798    -0.00000000     0.00000002  0.81D-13  0.92D-13  6  4     0.08     0.00
  17      1.10573127    -0.03200686   -14.90123798    -0.00000000     0.00000000  0.59D-14  0.18D-13  6  6     0.09     0.00
  18      1.10573128    -0.03200686   -14.90123798    -0.00000000    -0.00000000  0.31D-15  0.24D-14  6  5     0.09     0.00
  19      1.10573130    -0.03200686   -14.90123798    -0.00000000    -0.00000000  0.15D-16  0.35D-15  6  1     0.09     0.00
  20      1.10573131    -0.03200686   -14.90123798    -0.00000000    -0.00000000  0.14D-16  0.39D-16  6  2     0.09     0.00
  21      1.10573131    -0.03200686   -14.90123798     0.00000000    -0.00000000  0.29D-17  0.76D-17  6  3     0.10     0.00
  22      1.10573131    -0.03200686   -14.90123798     0.00000000    -0.00000000  0.45D-18  0.24D-17  6  4     0.10     0.00
  23      1.10573131    -0.03200686   -14.90123798     0.00000000    -0.00000000  0.13D-18  0.59D-18  6  5     0.10     0.00
  24      1.10573131    -0.03200686   -14.90123798     0.00000000    -0.00000000  0.27D-20  0.53D-19  6  6     0.11     0.00
  25      1.10573131    -0.03200686   -14.90123798     0.00000000    -0.00000000  0.99D-21  0.13D-19  6  1     0.11     0.00
  26      1.10573131    -0.03200686   -14.90123798     0.00000000     0.00000000  0.49D-21  0.27D-20  6  2     0.11     0.00
  27      1.10573131    -0.03200686   -14.90123798     0.00000000     0.00000000  0.12D-21  0.68D-21  6  3     0.11     0.00
  28      1.10573131    -0.03200686   -14.90123798     0.00000000     0.00000000  0.24D-23  0.79D-22  6  1     0.12     0.00
  29      1.10573131    -0.03200686   -14.90123798     0.00000000     0.00000000  0.20D-23  0.16D-22  6  5     0.12     0.00
  30      1.10573131    -0.03200686   -14.90123798     0.00000000     0.00000000  0.84D-24  0.34D-23  6  4     0.12     0.00
  31      1.10573131    -0.03200686   -14.90123798     0.00000000     0.00000000  0.57D-24  0.72D-24  6  6     0.13     0.00
  32      1.10573131    -0.03200686   -14.90123798     0.00000000     0.00000000  0.29D-24  0.18D-24  6  2     0.13     0.00


 ! DIPOLE MOMENTS:                      0.00000000     0.00000000     0.00000000



 Norm of t1 vector:      0.02667499      S-energy:    -0.00002060      T1 diagnostic:  0.00770041

 Singles amplitudes (print threshold =  0.000E+00):

         I         SYM. A    A   T(IA)

         1         1         1      0.00000000
         1         1         2     -0.00000000
         1         1         3      0.00001410
         1         1         4     -0.00000966
         1         1         5      0.00000000
         1         1         6      0.00000000
         1         1         7     -0.00027301
         1         1         8      0.00000000
         1         1         9      0.00000000
         1         1        10     -0.00000000
         1         1        11     -0.00000000
         1         1        12      0.00002425
         2         1         1      0.00000000
         2         1         2      0.00000000
         2         1         3      0.01391379
         2         1         4     -0.01010932
         2         1         5     -0.00000000
         2         1         6     -0.00000000
         2         1         7     -0.00722627
         2         1         8     -0.00000000
         2         1         9      0.00000000
         2         1        10      0.00000000
         2         1        11     -0.00000000
         2         1        12     -0.00270350
         3         2         1     -0.00034350
         3         2         2     -0.00000000
         3         2         3      0.00000000
         3         2         4      0.00037776
         3         2         5      0.00000000
         3         2         6     -0.00000000
         3         2         7     -0.00013803
         3         2         8     -0.00031406
         3         2         9      0.00000000
         3         2        10      0.00000000
         3         2        11     -0.00000000
         3         2        12      0.00000000
         3         2        13     -0.00006297

 Doubles amplitudes (print threshold =  0.000E+00):

         I         J         SYM. A    SYM. B    A         B      T(IJ, AB)

         1         1         1         1         1         1      0.00011475
         1         1         1         1         1         2      0.00000000
         1         1         1         1         1         3     -0.00000000
         1         1         1         1         1         4      0.00000000
         1         1         1         1         1         5      0.00003051
         1         1         1         1         1         6     -0.00008569
         1         1         1         1         1         7     -0.00000000
         1         1         1         1         1         8     -0.00000000
         1         1         1         1         1         9      0.00000000
         1         1         1         1         1        10     -0.00007982
         1         1         1         1         1        11      0.00000192
         1         1         1         1         1        12      0.00000000
         1         1         1         1         2         1      0.00000000
         1         1         1         1         2         2      0.00011475
         1         1         1         1         2         3     -0.00000000
         1         1         1         1         2         4      0.00000000
         1         1         1         1         2         5      0.00008569
         1         1         1         1         2         6      0.00003051
         1         1         1         1         2         7     -0.00000000
         1         1         1         1         2         8      0.00000000
         1         1         1         1         2         9     -0.00000000
         1         1         1         1         2        10     -0.00000192
         1         1         1         1         2        11     -0.00007982
         1         1         1         1         2        12      0.00000000
         1         1         1         1         3         1     -0.00000000
         1         1         1         1         3         2     -0.00000000
         1         1         1         1         3         3     -0.00002545
         1         1         1         1         3         4      0.00013623
         1         1         1         1         3         5      0.00000000
         1         1         1         1         3         6     -0.00000000
         1         1         1         1         3         7     -0.00008142
         1         1         1         1         3         8      0.00000000
         1         1         1         1         3         9      0.00000000
         1         1         1         1         3        10     -0.00000000
         1         1         1         1         3        11     -0.00000000
         1         1         1         1         3        12     -0.00011038
         1         1         1         1         4         1      0.00000000
         1         1         1         1         4         2      0.00000000
         1         1         1         1         4         3      0.00013623
         1         1         1         1         4         4     -0.00038850
         1         1         1         1         4         5     -0.00000000
         1         1         1         1         4         6      0.00000000
         1         1         1         1         4         7      0.00024695
         1         1         1         1         4         8      0.00000000
         1         1         1         1         4         9     -0.00000000
         1         1         1         1         4        10     -0.00000000
         1         1         1         1         4        11      0.00000000
         1         1         1         1         4        12      0.00022863
         1         1         1         1         5         1      0.00003051
         1         1         1         1         5         2      0.00008569
         1         1         1         1         5         3      0.00000000
         1         1         1         1         5         4     -0.00000000
         1         1         1         1         5         5     -0.00061204
         1         1         1         1         5         6     -0.00000000
         1         1         1         1         5         7      0.00000000
         1         1         1         1         5         8     -0.00000000
         1         1         1         1         5         9      0.00000000
         1         1         1         1         5        10      0.00005547
         1         1         1         1         5        11      0.00014471
         1         1         1         1         5        12     -0.00000000
         1         1         1         1         6         1     -0.00008569
         1         1         1         1         6         2      0.00003051
         1         1         1         1         6         3     -0.00000000
         1         1         1         1         6         4      0.00000000
         1         1         1         1         6         5      0.00000000
         1         1         1         1         6         6     -0.00061204
         1         1         1         1         6         7     -0.00000000
         1         1         1         1         6         8     -0.00000000
         1         1         1         1         6         9      0.00000000
         1         1         1         1         6        10     -0.00014471
         1         1         1         1         6        11      0.00005547
         1         1         1         1         6        12     -0.00000000
         1         1         1         1         7         1     -0.00000000
         1         1         1         1         7         2     -0.00000000
         1         1         1         1         7         3     -0.00008142
         1         1         1         1         7         4      0.00024695
         1         1         1         1         7         5      0.00000000
         1         1         1         1         7         6     -0.00000000
         1         1         1         1         7         7     -0.00069843
         1         1         1         1         7         8     -0.00000000
         1         1         1         1         7         9     -0.00000000
         1         1         1         1         7        10      0.00000000
         1         1         1         1         7        11      0.00000000
         1         1         1         1         7        12      0.00008960
         1         1         1         1         8         1     -0.00000000
         1         1         1         1         8         2      0.00000000
         1         1         1         1         8         3      0.00000000
         1         1         1         1         8         4      0.00000000
         1         1         1         1         8         5     -0.00000000
         1         1         1         1         8         6     -0.00000000
         1         1         1         1         8         7     -0.00000000
         1         1         1         1         8         8     -0.00000154
         1         1         1         1         8         9      0.00000000
         1         1         1         1         8        10      0.00000000
         1         1         1         1         8        11     -0.00000000
         1         1         1         1         8        12     -0.00000000
         1         1         1         1         9         1      0.00000000
         1         1         1         1         9         2     -0.00000000
         1         1         1         1         9         3      0.00000000
         1         1         1         1         9         4     -0.00000000
         1         1         1         1         9         5      0.00000000
         1         1         1         1         9         6      0.00000000
         1         1         1         1         9         7     -0.00000000
         1         1         1         1         9         8      0.00000000
         1         1         1         1         9         9     -0.00000154
         1         1         1         1         9        10     -0.00000000
         1         1         1         1         9        11      0.00000000
         1         1         1         1         9        12      0.00000000
         1         1         1         1        10         1     -0.00007982
         1         1         1         1        10         2     -0.00000192
         1         1         1         1        10         3     -0.00000000
         1         1         1         1        10         4     -0.00000000
         1         1         1         1        10         5      0.00005547
         1         1         1         1        10         6     -0.00014471
         1         1         1         1        10         7      0.00000000
         1         1         1         1        10         8      0.00000000
         1         1         1         1        10         9     -0.00000000
         1         1         1         1        10        10     -0.00002426
         1         1         1         1        10        11     -0.00000000
         1         1         1         1        10        12     -0.00000000
         1         1         1         1        11         1      0.00000192
         1         1         1         1        11         2     -0.00007982
         1         1         1         1        11         3     -0.00000000
         1         1         1         1        11         4      0.00000000
         1         1         1         1        11         5      0.00014471
         1         1         1         1        11         6      0.00005547
         1         1         1         1        11         7      0.00000000
         1         1         1         1        11         8     -0.00000000
         1         1         1         1        11         9      0.00000000
         1         1         1         1        11        10      0.00000000
         1         1         1         1        11        11     -0.00002426
         1         1         1         1        11        12     -0.00000000
         1         1         1         1        12         1      0.00000000
         1         1         1         1        12         2      0.00000000
         1         1         1         1        12         3     -0.00011038
         1         1         1         1        12         4      0.00022863
         1         1         1         1        12         5     -0.00000000
         1         1         1         1        12         6     -0.00000000
         1         1         1         1        12         7      0.00008960
         1         1         1         1        12         8     -0.00000000
         1         1         1         1        12         9      0.00000000
         1         1         1         1        12        10     -0.00000000
         1         1         1         1        12        11     -0.00000000
         1         1         1         1        12        12     -0.00031082
         1         1         2         2         1         1     -0.00029473
         1         1         2         2         1         2      0.00000000
         1         1         2         2         1         3      0.00000000
         1         1         2         2         1         4      0.00048449
         1         1         2         2         1         5      0.00000000
         1         1         2         2         1         6      0.00000000
         1         1         2         2         1         7     -0.00021411
         1         1         2         2         1         8     -0.00035267
         1         1         2         2         1         9     -0.00000000
         1         1         2         2         1        10      0.00000000
         1         1         2         2         1        11      0.00000000
         1         1         2         2         1        12      0.00000000
         1         1         2         2         1        13     -0.00047387
         1         1         2         2         2         1      0.00000000
         1         1         2         2         2         2     -0.00000757
         1         1         2         2         2         3     -0.00000000
         1         1         2         2         2         4     -0.00000000
         1         1         2         2         2         5     -0.00008055
         1         1         2         2         2         6     -0.00004107
         1         1         2         2         2         7      0.00000000
         1         1         2         2         2         8     -0.00000000
         1         1         2         2         2         9      0.00000000
         1         1         2         2         2        10     -0.00000000
         1         1         2         2         2        11     -0.00002917
         1         1         2         2         2        12     -0.00004725
         1         1         2         2         2        13     -0.00000000
         1         1         2         2         3         1      0.00000000
         1         1         2         2         3         2     -0.00000000
         1         1         2         2         3         3     -0.00000757
         1         1         2         2         3         4     -0.00000000
         1         1         2         2         3         5     -0.00004107
         1         1         2         2         3         6      0.00008055
         1         1         2         2         3         7     -0.00000000
         1         1         2         2         3         8      0.00000000
         1         1         2         2         3         9      0.00000000
         1         1         2         2         3        10     -0.00000000
         1         1         2         2         3        11      0.00004725
         1         1         2         2         3        12     -0.00002917
         1         1         2         2         3        13      0.00000000
         1         1         2         2         4         1      0.00048449
         1         1         2         2         4         2     -0.00000000
         1         1         2         2         4         3     -0.00000000
         1         1         2         2         4         4     -0.00073227
         1         1         2         2         4         5     -0.00000000
         1         1         2         2         4         6     -0.00000000
         1         1         2         2         4         7      0.00021873
         1         1         2         2         4         8      0.00053630
         1         1         2         2         4         9      0.00000000
         1         1         2         2         4        10      0.00000000
         1         1         2         2         4        11     -0.00000000
         1         1         2         2         4        12     -0.00000000
         1         1         2         2         4        13      0.00053633
         1         1         2         2         5         1      0.00000000
         1         1         2         2         5         2     -0.00008055
         1         1         2         2         5         3     -0.00004107
         1         1         2         2         5         4     -0.00000000
         1         1         2         2         5         5     -0.00077954
         1         1         2         2         5         6      0.00000000
         1         1         2         2         5         7      0.00000000
         1         1         2         2         5         8      0.00000000
         1         1         2         2         5         9     -0.00000000
         1         1         2         2         5        10     -0.00000000
         1         1         2         2         5        11     -0.00003985
         1         1         2         2         5        12     -0.00048797
         1         1         2         2         5        13      0.00000000
         1         1         2         2         6         1      0.00000000
         1         1         2         2         6         2     -0.00004107
         1         1         2         2         6         3      0.00008055
         1         1         2         2         6         4     -0.00000000
         1         1         2         2         6         5      0.00000000
         1         1         2         2         6         6     -0.00077954
         1         1         2         2         6         7      0.00000000
         1         1         2         2         6         8     -0.00000000
         1         1         2         2         6         9     -0.00000000
         1         1         2         2         6        10      0.00000000
         1         1         2         2         6        11     -0.00048797
         1         1         2         2         6        12      0.00003985
         1         1         2         2         6        13      0.00000000
         1         1         2         2         7         1     -0.00021411
         1         1         2         2         7         2      0.00000000
         1         1         2         2         7         3     -0.00000000
         1         1         2         2         7         4      0.00021873
         1         1         2         2         7         5      0.00000000
         1         1         2         2         7         6      0.00000000
         1         1         2         2         7         7     -0.00064328
         1         1         2         2         7         8     -0.00003552
         1         1         2         2         7         9     -0.00000000
         1         1         2         2         7        10     -0.00000000
         1         1         2         2         7        11     -0.00000000
         1         1         2         2         7        12      0.00000000
         1         1         2         2         7        13     -0.00116976
         1         1         2         2         8         1     -0.00035267
         1         1         2         2         8         2     -0.00000000
         1         1         2         2         8         3      0.00000000
         1         1         2         2         8         4      0.00053630
         1         1         2         2         8         5      0.00000000
         1         1         2         2         8         6     -0.00000000
         1         1         2         2         8         7     -0.00003552
         1         1         2         2         8         8     -0.00045748
         1         1         2         2         8         9     -0.00000000
         1         1         2         2         8        10     -0.00000000
         1         1         2         2         8        11     -0.00000000
         1         1         2         2         8        12      0.00000000
         1         1         2         2         8        13     -0.00003147
         1         1         2         2         9         1     -0.00000000
         1         1         2         2         9         2      0.00000000
         1         1         2         2         9         3      0.00000000
         1         1         2         2         9         4      0.00000000
         1         1         2         2         9         5     -0.00000000
         1         1         2         2         9         6     -0.00000000
         1         1         2         2         9         7     -0.00000000
         1         1         2         2         9         8     -0.00000000
         1         1         2         2         9         9     -0.00000576
         1         1         2         2         9        10     -0.00000000
         1         1         2         2         9        11     -0.00000000
         1         1         2         2         9        12     -0.00000000
         1         1         2         2         9        13     -0.00000000
         1         1         2         2        10         1      0.00000000
         1         1         2         2        10         2     -0.00000000
         1         1         2         2        10         3     -0.00000000
         1         1         2         2        10         4      0.00000000
         1         1         2         2        10         5     -0.00000000
         1         1         2         2        10         6      0.00000000
         1         1         2         2        10         7     -0.00000000
         1         1         2         2        10         8     -0.00000000
         1         1         2         2        10         9     -0.00000000
         1         1         2         2        10        10     -0.00000576
         1         1         2         2        10        11      0.00000000
         1         1         2         2        10        12     -0.00000000
         1         1         2         2        10        13     -0.00000000
         1         1         2         2        11         1      0.00000000
         1         1         2         2        11         2     -0.00002917
         1         1         2         2        11         3      0.00004725
         1         1         2         2        11         4     -0.00000000
         1         1         2         2        11         5     -0.00003985
         1         1         2         2        11         6     -0.00048797
         1         1         2         2        11         7     -0.00000000
         1         1         2         2        11         8     -0.00000000
         1         1         2         2        11         9     -0.00000000
         1         1         2         2        11        10      0.00000000
         1         1         2         2        11        11     -0.00032556
         1         1         2         2        11        12     -0.00000000
         1         1         2         2        11        13     -0.00000000
         1         1         2         2        12         1      0.00000000
         1         1         2         2        12         2     -0.00004725
         1         1         2         2        12         3     -0.00002917
         1         1         2         2        12         4     -0.00000000
         1         1         2         2        12         5     -0.00048797
         1         1         2         2        12         6      0.00003985
         1         1         2         2        12         7      0.00000000
         1         1         2         2        12         8      0.00000000
         1         1         2         2        12         9     -0.00000000
         1         1         2         2        12        10     -0.00000000
         1         1         2         2        12        11     -0.00000000
         1         1         2         2        12        12     -0.00032556
         1         1         2         2        12        13     -0.00000000
         1         1         2         2        13         1     -0.00047387
         1         1         2         2        13         2     -0.00000000
         1         1         2         2        13         3      0.00000000
         1         1         2         2        13         4      0.00053633
         1         1         2         2        13         5      0.00000000
         1         1         2         2        13         6      0.00000000
         1         1         2         2        13         7     -0.00116976
         1         1         2         2        13         8     -0.00003147
         1         1         2         2        13         9     -0.00000000
         1         1         2         2        13        10     -0.00000000
         1         1         2         2        13        11     -0.00000000
         1         1         2         2        13        12     -0.00000000
         1         1         2         2        13        13     -0.00283952
         2         1         1         1         1         1     -0.00047274
         2         1         1         1         1         2     -0.00000000
         2         1         1         1         1         3      0.00000000
         2         1         1         1         1         4     -0.00000000
         2         1         1         1         1         5      0.00039395
         2         1         1         1         1         6     -0.00110660
         2         1         1         1         1         7     -0.00000000
         2         1         1         1         1         8     -0.00000000
         2         1         1         1         1         9      0.00000000
         2         1         1         1         1        10     -0.00002162
         2         1         1         1         1        11      0.00000052
         2         1         1         1         1        12     -0.00000000
         2         1         1         1         2         1      0.00000000
         2         1         1         1         2         2     -0.00047274
         2         1         1         1         2         3      0.00000000
         2         1         1         1         2         4     -0.00000000
         2         1         1         1         2         5      0.00110660
         2         1         1         1         2         6      0.00039395
         2         1         1         1         2         7      0.00000000
         2         1         1         1         2         8     -0.00000000
         2         1         1         1         2         9      0.00000000
         2         1         1         1         2        10     -0.00000052
         2         1         1         1         2        11     -0.00002162
         2         1         1         1         2        12      0.00000000
         2         1         1         1         3         1      0.00000000
         2         1         1         1         3         2      0.00000000
         2         1         1         1         3         3     -0.00045691
         2         1         1         1         3         4      0.00091789
         2         1         1         1         3         5      0.00000000
         2         1         1         1         3         6     -0.00000000
         2         1         1         1         3         7     -0.00089462
         2         1         1         1         3         8     -0.00000000
         2         1         1         1         3         9     -0.00000000
         2         1         1         1         3        10     -0.00000000
         2         1         1         1         3        11      0.00000000
         2         1         1         1         3        12     -0.00043181
         2         1         1         1         4         1     -0.00000000
         2         1         1         1         4         2     -0.00000000
         2         1         1         1         4         3      0.00066297
         2         1         1         1         4         4     -0.00133928
         2         1         1         1         4         5     -0.00000000
         2         1         1         1         4         6      0.00000000
         2         1         1         1         4         7      0.00134933
         2         1         1         1         4         8      0.00000000
         2         1         1         1         4         9      0.00000000
         2         1         1         1         4        10      0.00000000
         2         1         1         1         4        11     -0.00000000
         2         1         1         1         4        12      0.00072935
         2         1         1         1         5         1      0.00022932
         2         1         1         1         5         2      0.00064416
         2         1         1         1         5         3      0.00000000
         2         1         1         1         5         4     -0.00000000
         2         1         1         1         5         5     -0.00185275
         2         1         1         1         5         6      0.00000000
         2         1         1         1         5         7      0.00000000
         2         1         1         1         5         8      0.00000000
         2         1         1         1         5         9     -0.00000000
         2         1         1         1         5        10      0.00002710
         2         1         1         1         5        11      0.00007071
         2         1         1         1         5        12      0.00000000
         2         1         1         1         6         1     -0.00064416
         2         1         1         1         6         2      0.00022932
         2         1         1         1         6         3     -0.00000000
         2         1         1         1         6         4      0.00000000
         2         1         1         1         6         5      0.00000000
         2         1         1         1         6         6     -0.00185275
         2         1         1         1         6         7     -0.00000000
         2         1         1         1         6         8      0.00000000
         2         1         1         1         6         9     -0.00000000
         2         1         1         1         6        10     -0.00007071
         2         1         1         1         6        11      0.00002710
         2         1         1         1         6        12     -0.00000000
         2         1         1         1         7         1      0.00000000
         2         1         1         1         7         2      0.00000000
         2         1         1         1         7         3     -0.00036052
         2         1         1         1         7         4      0.00075925
         2         1         1         1         7         5      0.00000000
         2         1         1         1         7         6     -0.00000000
         2         1         1         1         7         7     -0.00052728
         2         1         1         1         7         8     -0.00000000
         2         1         1         1         7         9      0.00000000
         2         1         1         1         7        10     -0.00000000
         2         1         1         1         7        11      0.00000000
         2         1         1         1         7        12     -0.00034611
         2         1         1         1         8         1      0.00000000
         2         1         1         1         8         2     -0.00000000
         2         1         1         1         8         3     -0.00000000
         2         1         1         1         8         4      0.00000000
         2         1         1         1         8         5     -0.00000000
         2         1         1         1         8         6      0.00000000
         2         1         1         1         8         7     -0.00000000
         2         1         1         1         8         8     -0.00019064
         2         1         1         1         8         9     -0.00000000
         2         1         1         1         8        10      0.00000000
         2         1         1         1         8        11      0.00000000
         2         1         1         1         8        12     -0.00000000
         2         1         1         1         9         1     -0.00000000
         2         1         1         1         9         2      0.00000000
         2         1         1         1         9         3     -0.00000000
         2         1         1         1         9         4      0.00000000
         2         1         1         1         9         5     -0.00000000
         2         1         1         1         9         6     -0.00000000
         2         1         1         1         9         7      0.00000000
         2         1         1         1         9         8     -0.00000000
         2         1         1         1         9         9     -0.00019064
         2         1         1         1         9        10     -0.00000000
         2         1         1         1         9        11      0.00000000
         2         1         1         1         9        12      0.00000000
         2         1         1         1        10         1      0.00024823
         2         1         1         1        10         2      0.00000597
         2         1         1         1        10         3      0.00000000
         2         1         1         1        10         4     -0.00000000
         2         1         1         1        10         5     -0.00017483
         2         1         1         1        10         6      0.00045608
         2         1         1         1        10         7      0.00000000
         2         1         1         1        10         8     -0.00000000
         2         1         1         1        10         9     -0.00000000
         2         1         1         1        10        10     -0.00024499
         2         1         1         1        10        11      0.00000000
         2         1         1         1        10        12      0.00000000
         2         1         1         1        11         1     -0.00000597
         2         1         1         1        11         2      0.00024823
         2         1         1         1        11         3      0.00000000
         2         1         1         1        11         4     -0.00000000
         2         1         1         1        11         5     -0.00045608
         2         1         1         1        11         6     -0.00017483
         2         1         1         1        11         7      0.00000000
         2         1         1         1        11         8      0.00000000
         2         1         1         1        11         9     -0.00000000
         2         1         1         1        11        10      0.00000000
         2         1         1         1        11        11     -0.00024499
         2         1         1         1        11        12      0.00000000
         2         1         1         1        12         1      0.00000000
         2         1         1         1        12         2      0.00000000
         2         1         1         1        12         3     -0.00041605
         2         1         1         1        12         4      0.00086229
         2         1         1         1        12         5     -0.00000000
         2         1         1         1        12         6      0.00000000
         2         1         1         1        12         7     -0.00089177
         2         1         1         1        12         8     -0.00000000
         2         1         1         1        12         9      0.00000000
         2         1         1         1        12        10     -0.00000000
         2         1         1         1        12        11      0.00000000
         2         1         1         1        12        12     -0.00060415
         2         1         2         2         1         1      0.00011498
         2         1         2         2         1         2     -0.00000000
         2         1         2         2         1         3     -0.00000000
         2         1         2         2         1         4     -0.00018704
         2         1         2         2         1         5      0.00000000
         2         1         2         2         1         6      0.00000000
         2         1         2         2         1         7     -0.00047927
         2         1         2         2         1         8      0.00034200
         2         1         2         2         1         9      0.00000000
         2         1         2         2         1        10     -0.00000000
         2         1         2         2         1        11      0.00000000
         2         1         2         2         1        12     -0.00000000
         2         1         2         2         1        13     -0.00083111
         2         1         2         2         2         1      0.00000000
         2         1         2         2         2         2     -0.00008561
         2         1         2         2         2         3     -0.00000000
         2         1         2         2         2         4     -0.00000000
         2         1         2         2         2         5     -0.00049126
         2         1         2         2         2         6     -0.00025049
         2         1         2         2         2         7     -0.00000000
         2         1         2         2         2         8     -0.00000000
         2         1         2         2         2         9     -0.00000000
         2         1         2         2         2        10      0.00000000
         2         1         2         2         2        11     -0.00014203
         2         1         2         2         2        12     -0.00023010
         2         1         2         2         2        13      0.00000000
         2         1         2         2         3         1     -0.00000000
         2         1         2         2         3         2     -0.00000000
         2         1         2         2         3         3     -0.00008561
         2         1         2         2         3         4      0.00000000
         2         1         2         2         3         5     -0.00025049
         2         1         2         2         3         6      0.00049126
         2         1         2         2         3         7     -0.00000000
         2         1         2         2         3         8      0.00000000
         2         1         2         2         3         9      0.00000000
         2         1         2         2         3        10     -0.00000000
         2         1         2         2         3        11      0.00023010
         2         1         2         2         3        12     -0.00014203
         2         1         2         2         3        13     -0.00000000
         2         1         2         2         4         1     -0.00025680
         2         1         2         2         4         2      0.00000000
         2         1         2         2         4         3      0.00000000
         2         1         2         2         4         4      0.00035162
         2         1         2         2         4         5      0.00000000
         2         1         2         2         4         6     -0.00000000
         2         1         2         2         4         7      0.00029436
         2         1         2         2         4         8     -0.00039911
         2         1         2         2         4         9     -0.00000000
         2         1         2         2         4        10     -0.00000000
         2         1         2         2         4        11     -0.00000000
         2         1         2         2         4        12      0.00000000
         2         1         2         2         4        13      0.00059133
         2         1         2         2         5         1      0.00000000
         2         1         2         2         5         2     -0.00022617
         2         1         2         2         5         3     -0.00011532
         2         1         2         2         5         4     -0.00000000
         2         1         2         2         5         5     -0.00165810
         2         1         2         2         5         6     -0.00000000
         2         1         2         2         5         7     -0.00000000
         2         1         2         2         5         8      0.00000000
         2         1         2         2         5         9     -0.00000000
         2         1         2         2         5        10     -0.00000000
         2         1         2         2         5        11     -0.00007332
         2         1         2         2         5        12     -0.00089776
         2         1         2         2         5        13      0.00000000
         2         1         2         2         6         1      0.00000000
         2         1         2         2         6         2     -0.00011532
         2         1         2         2         6         3      0.00022617
         2         1         2         2         6         4     -0.00000000
         2         1         2         2         6         5      0.00000000
         2         1         2         2         6         6     -0.00165810
         2         1         2         2         6         7     -0.00000000
         2         1         2         2         6         8     -0.00000000
         2         1         2         2         6         9      0.00000000
         2         1         2         2         6        10      0.00000000
         2         1         2         2         6        11     -0.00089776
         2         1         2         2         6        12      0.00007332
         2         1         2         2         6        13      0.00000000
         2         1         2         2         7         1     -0.00018516
         2         1         2         2         7         2     -0.00000000
         2         1         2         2         7         3      0.00000000
         2         1         2         2         7         4      0.00017581
         2         1         2         2         7         5     -0.00000000
         2         1         2         2         7         6      0.00000000
         2         1         2         2         7         7     -0.00080703
         2         1         2         2         7         8      0.00015637
         2         1         2         2         7         9     -0.00000000
         2         1         2         2         7        10     -0.00000000
         2         1         2         2         7        11     -0.00000000
         2         1         2         2         7        12      0.00000000
         2         1         2         2         7        13     -0.00125012
         2         1         2         2         8         1      0.00033070
         2         1         2         2         8         2      0.00000000
         2         1         2         2         8         3     -0.00000000
         2         1         2         2         8         4     -0.00038432
         2         1         2         2         8         5     -0.00000000
         2         1         2         2         8         6      0.00000000
         2         1         2         2         8         7      0.00035972
         2         1         2         2         8         8      0.00014885
         2         1         2         2         8         9     -0.00000000
         2         1         2         2         8        10     -0.00000000
         2         1         2         2         8        11      0.00000000
         2         1         2         2         8        12     -0.00000000
         2         1         2         2         8        13      0.00030294
         2         1         2         2         9         1      0.00000000
         2         1         2         2         9         2      0.00000000
         2         1         2         2         9         3     -0.00000000
         2         1         2         2         9         4     -0.00000000
         2         1         2         2         9         5      0.00000000
         2         1         2         2         9         6      0.00000000
         2         1         2         2         9         7     -0.00000000
         2         1         2         2         9         8      0.00000000
         2         1         2         2         9         9     -0.00014804
         2         1         2         2         9        10     -0.00000000
         2         1         2         2         9        11      0.00000000
         2         1         2         2         9        12      0.00000000
         2         1         2         2         9        13     -0.00000000
         2         1         2         2        10         1     -0.00000000
         2         1         2         2        10         2      0.00000000
         2         1         2         2        10         3     -0.00000000
         2         1         2         2        10         4     -0.00000000
         2         1         2         2        10         5     -0.00000000
         2         1         2         2        10         6      0.00000000
         2         1         2         2        10         7      0.00000000
         2         1         2         2        10         8     -0.00000000
         2         1         2         2        10         9     -0.00000000
         2         1         2         2        10        10     -0.00014804
         2         1         2         2        10        11      0.00000000
         2         1         2         2        10        12     -0.00000000
         2         1         2         2        10        13      0.00000000
         2         1         2         2        11         1     -0.00000000
         2         1         2         2        11         2     -0.00005869
         2         1         2         2        11         3      0.00009509
         2         1         2         2        11         4      0.00000000
         2         1         2         2        11         5     -0.00006412
         2         1         2         2        11         6     -0.00078511
         2         1         2         2        11         7     -0.00000000
         2         1         2         2        11         8      0.00000000
         2         1         2         2        11         9     -0.00000000
         2         1         2         2        11        10      0.00000000
         2         1         2         2        11        11     -0.00059528
         2         1         2         2        11        12      0.00000000
         2         1         2         2        11        13     -0.00000000
         2         1         2         2        12         1      0.00000000
         2         1         2         2        12         2     -0.00009509
         2         1         2         2        12         3     -0.00005869
         2         1         2         2        12         4     -0.00000000
         2         1         2         2        12         5     -0.00078511
         2         1         2         2        12         6      0.00006412
         2         1         2         2        12         7      0.00000000
         2         1         2         2        12         8      0.00000000
         2         1         2         2        12         9     -0.00000000
         2         1         2         2        12        10      0.00000000
         2         1         2         2        12        11      0.00000000
         2         1         2         2        12        12     -0.00059528
         2         1         2         2        12        13      0.00000000
         2         1         2         2        13         1     -0.00019808
         2         1         2         2        13         2      0.00000000
         2         1         2         2        13         3      0.00000000
         2         1         2         2        13         4      0.00016310
         2         1         2         2        13         5      0.00000000
         2         1         2         2        13         6      0.00000000
         2         1         2         2        13         7     -0.00089796
         2         1         2         2        13         8      0.00005601
         2         1         2         2        13         9      0.00000000
         2         1         2         2        13        10      0.00000000
         2         1         2         2        13        11     -0.00000000
         2         1         2         2        13        12      0.00000000
         2         1         2         2        13        13     -0.00129058
         2         2         1         1         1         1     -0.11852134
         2         2         1         1         1         2     -0.00000000
         2         2         1         1         1         3      0.00000000
         2         2         1         1         1         4     -0.00000000
         2         2         1         1         1         5      0.02812593
         2         2         1         1         1         6     -0.07900536
         2         2         1         1         1         7      0.00000000
         2         2         1         1         1         8      0.00000000
         2         2         1         1         1         9     -0.00000000
         2         2         1         1         1        10      0.03192236
         2         2         1         1         1        11     -0.00076755
         2         2         1         1         1        12      0.00000000
         2         2         1         1         2         1     -0.00000000
         2         2         1         1         2         2     -0.11852134
         2         2         1         1         2         3      0.00000000
         2         2         1         1         2         4     -0.00000000
         2         2         1         1         2         5      0.07900536
         2         2         1         1         2         6      0.02812593
         2         2         1         1         2         7      0.00000000
         2         2         1         1         2         8     -0.00000000
         2         2         1         1         2         9      0.00000000
         2         2         1         1         2        10      0.00076755
         2         2         1         1         2        11      0.03192236
         2         2         1         1         2        12      0.00000000
         2         2         1         1         3         1      0.00000000
         2         2         1         1         3         2      0.00000000
         2         2         1         1         3         3     -0.04921792
         2         2         1         1         3         4      0.05606991
         2         2         1         1         3         5     -0.00000000
         2         2         1         1         3         6     -0.00000000
         2         2         1         1         3         7     -0.00738136
         2         2         1         1         3         8     -0.00000000
         2         2         1         1         3         9     -0.00000000
         2         2         1         1         3        10      0.00000000
         2         2         1         1         3        11      0.00000000
         2         2         1         1         3        12     -0.01904368
         2         2         1         1         4         1     -0.00000000
         2         2         1         1         4         2     -0.00000000
         2         2         1         1         4         3      0.05606991
         2         2         1         1         4         4     -0.07069470
         2         2         1         1         4         5      0.00000000
         2         2         1         1         4         6     -0.00000000
         2         2         1         1         4         7      0.00445973
         2         2         1         1         4         8      0.00000000
         2         2         1         1         4         9      0.00000000
         2         2         1         1         4        10      0.00000000
         2         2         1         1         4        11     -0.00000000
         2         2         1         1         4        12      0.02547991
         2         2         1         1         5         1      0.02812593
         2         2         1         1         5         2      0.07900536
         2         2         1         1         5         3     -0.00000000
         2         2         1         1         5         4      0.00000000
         2         2         1         1         5         5     -0.06188594
         2         2         1         1         5         6     -0.00000000
         2         2         1         1         5         7     -0.00000000
         2         2         1         1         5         8      0.00000000
         2         2         1         1         5         9     -0.00000000
         2         2         1         1         5        10     -0.00902438
         2         2         1         1         5        11     -0.02354233
         2         2         1         1         5        12      0.00000000
         2         2         1         1         6         1     -0.07900536
         2         2         1         1         6         2      0.02812593
         2         2         1         1         6         3     -0.00000000
         2         2         1         1         6         4     -0.00000000
         2         2         1         1         6         5     -0.00000000
         2         2         1         1         6         6     -0.06188594
         2         2         1         1         6         7      0.00000000
         2         2         1         1         6         8      0.00000000
         2         2         1         1         6         9     -0.00000000
         2         2         1         1         6        10      0.02354233
         2         2         1         1         6        11     -0.00902438
         2         2         1         1         6        12     -0.00000000
         2         2         1         1         7         1      0.00000000
         2         2         1         1         7         2      0.00000000
         2         2         1         1         7         3     -0.00738136
         2         2         1         1         7         4      0.00445973
         2         2         1         1         7         5     -0.00000000
         2         2         1         1         7         6      0.00000000
         2         2         1         1         7         7     -0.00455940
         2         2         1         1         7         8      0.00000000
         2         2         1         1         7         9      0.00000000
         2         2         1         1         7        10     -0.00000000
         2         2         1         1         7        11     -0.00000000
         2         2         1         1         7        12     -0.00180768
         2         2         1         1         8         1      0.00000000
         2         2         1         1         8         2     -0.00000000
         2         2         1         1         8         3     -0.00000000
         2         2         1         1         8         4      0.00000000
         2         2         1         1         8         5      0.00000000
         2         2         1         1         8         6      0.00000000
         2         2         1         1         8         7      0.00000000
         2         2         1         1         8         8     -0.00637989
         2         2         1         1         8         9     -0.00000000
         2         2         1         1         8        10     -0.00000000
         2         2         1         1         8        11     -0.00000000
         2         2         1         1         8        12     -0.00000000
         2         2         1         1         9         1     -0.00000000
         2         2         1         1         9         2      0.00000000
         2         2         1         1         9         3     -0.00000000
         2         2         1         1         9         4      0.00000000
         2         2         1         1         9         5     -0.00000000
         2         2         1         1         9         6     -0.00000000
         2         2         1         1         9         7      0.00000000
         2         2         1         1         9         8     -0.00000000
         2         2         1         1         9         9     -0.00637989
         2         2         1         1         9        10      0.00000000
         2         2         1         1         9        11     -0.00000000
         2         2         1         1         9        12     -0.00000000
         2         2         1         1        10         1      0.03192236
         2         2         1         1        10         2      0.00076755
         2         2         1         1        10         3      0.00000000
         2         2         1         1        10         4      0.00000000
         2         2         1         1        10         5     -0.00902438
         2         2         1         1        10         6      0.02354233
         2         2         1         1        10         7     -0.00000000
         2         2         1         1        10         8     -0.00000000
         2         2         1         1        10         9      0.00000000
         2         2         1         1        10        10     -0.01353740
         2         2         1         1        10        11     -0.00000000
         2         2         1         1        10        12      0.00000000
         2         2         1         1        11         1     -0.00076755
         2         2         1         1        11         2      0.03192236
         2         2         1         1        11         3      0.00000000
         2         2         1         1        11         4     -0.00000000
         2         2         1         1        11         5     -0.02354233
         2         2         1         1        11         6     -0.00902438
         2         2         1         1        11         7     -0.00000000
         2         2         1         1        11         8     -0.00000000
         2         2         1         1        11         9     -0.00000000
         2         2         1         1        11        10      0.00000000
         2         2         1         1        11        11     -0.01353740
         2         2         1         1        11        12      0.00000000
         2         2         1         1        12         1      0.00000000
         2         2         1         1        12         2      0.00000000
[...]
         3         2         1         2         7        12      0.00000000
         3         2         1         2         7        13     -0.00071609
         3         2         1         2         8         1     -0.00000000
         3         2         1         2         8         2      0.00000000
         3         2         1         2         8         3      0.00000000
         3         2         1         2         8         4      0.00000000
         3         2         1         2         8         5      0.00000000
         3         2         1         2         8         6     -0.00000000
         3         2         1         2         8         7     -0.00000000
         3         2         1         2         8         8     -0.00000000
         3         2         1         2         8         9     -0.00013458
         3         2         1         2         8        10      0.00000451
         3         2         1         2         8        11     -0.00000000
         3         2         1         2         8        12      0.00000000
         3         2         1         2         8        13     -0.00000000
         3         2         1         2         9         1     -0.00000000
         3         2         1         2         9         2      0.00000000
         3         2         1         2         9         3     -0.00000000
         3         2         1         2         9         4     -0.00000000
         3         2         1         2         9         5     -0.00000000
         3         2         1         2         9         6      0.00000000
         3         2         1         2         9         7     -0.00000000
         3         2         1         2         9         8     -0.00000000
         3         2         1         2         9         9     -0.00000451
         3         2         1         2         9        10     -0.00013458
         3         2         1         2         9        11      0.00000000
         3         2         1         2         9        12     -0.00000000
         3         2         1         2         9        13      0.00000000
         3         2         1         2        10         1     -0.00000000
         3         2         1         2        10         2     -0.00009280
         3         2         1         2        10         3      0.00006454
         3         2         1         2        10         4      0.00000000
         3         2         1         2        10         5     -0.00013810
         3         2         1         2        10         6     -0.00025791
         3         2         1         2        10         7     -0.00000000
         3         2         1         2        10         8      0.00000000
         3         2         1         2        10         9     -0.00000000
         3         2         1         2        10        10      0.00000000
         3         2         1         2        10        11     -0.00000127
         3         2         1         2        10        12     -0.00000055
         3         2         1         2        10        13     -0.00000000
         3         2         1         2        11         1      0.00000000
         3         2         1         2        11         2      0.00006454
         3         2         1         2        11         3      0.00009280
         3         2         1         2        11         4     -0.00000000
         3         2         1         2        11         5      0.00025791
         3         2         1         2        11         6     -0.00013810
         3         2         1         2        11         7      0.00000000
         3         2         1         2        11         8      0.00000000
         3         2         1         2        11         9     -0.00000000
         3         2         1         2        11        10      0.00000000
         3         2         1         2        11        11     -0.00000055
         3         2         1         2        11        12      0.00000127
         3         2         1         2        11        13      0.00000000
         3         2         1         2        12         1     -0.00034897
         3         2         1         2        12         2     -0.00000000
         3         2         1         2        12         3     -0.00000000
         3         2         1         2        12         4      0.00036318
         3         2         1         2        12         5     -0.00000000
         3         2         1         2        12         6      0.00000000
         3         2         1         2        12         7     -0.00021201
         3         2         1         2        12         8     -0.00022078
         3         2         1         2        12         9     -0.00000000
         3         2         1         2        12        10     -0.00000000
         3         2         1         2        12        11     -0.00000000
         3         2         1         2        12        12     -0.00000000
         3         2         1         2        12        13     -0.00034892
         3         2         2         1         1         1     -0.00000000
         3         2         2         1         1         2      0.00000000
         3         2         2         1         1         3     -0.00033316
         3         2         2         1         1         4      0.00054300
         3         2         2         1         1         5      0.00000000
         3         2         2         1         1         6     -0.00000000
         3         2         2         1         1         7      0.00001129
         3         2         2         1         1         8     -0.00000000
         3         2         2         1         1         9     -0.00000000
         3         2         2         1         1        10     -0.00000000
         3         2         2         1         1        11      0.00000000
         3         2         2         1         1        12     -0.00043865
         3         2         2         1         2         1     -0.00013491
         3         2         2         1         2         2      0.00008909
         3         2         2         1         2         3      0.00000000
         3         2         2         1         2         4      0.00000000
         3         2         2         1         2         5     -0.00006510
         3         2         2         1         2         6     -0.00026415
         3         2         2         1         2         7      0.00000000
         3         2         2         1         2         8      0.00000000
         3         2         2         1         2         9     -0.00000000
         3         2         2         1         2        10      0.00003408
         3         2         2         1         2        11     -0.00002370
         3         2         2         1         2        12     -0.00000000
         3         2         2         1         3         1      0.00008909
         3         2         2         1         3         2      0.00013491
         3         2         2         1         3         3      0.00000000
         3         2         2         1         3         4     -0.00000000
         3         2         2         1         3         5     -0.00026415
         3         2         2         1         3         6      0.00006510
         3         2         2         1         3         7      0.00000000
         3         2         2         1         3         8      0.00000000
         3         2         2         1         3         9     -0.00000000
         3         2         2         1         3        10     -0.00002370
         3         2         2         1         3        11     -0.00003408
         3         2         2         1         3        12      0.00000000
         3         2         2         1         4         1      0.00000000
         3         2         2         1         4         2     -0.00000000
         3         2         2         1         4         3      0.00032554
         3         2         2         1         4         4     -0.00053316
         3         2         2         1         4         5     -0.00000000
         3         2         2         1         4         6      0.00000000
         3         2         2         1         4         7     -0.00006061
         3         2         2         1         4         8      0.00000000
         3         2         2         1         4         9     -0.00000000
         3         2         2         1         4        10      0.00000000
         3         2         2         1         4        11     -0.00000000
         3         2         2         1         4        12      0.00045837
         3         2         2         1         5         1     -0.00054331
         3         2         2         1         5         2      0.00095860
         3         2         2         1         5         3      0.00000000
         3         2         2         1         5         4     -0.00000000
         3         2         2         1         5         5     -0.00120083
         3         2         2         1         5         6     -0.00138820
         3         2         2         1         5         7      0.00000000
         3         2         2         1         5         8      0.00000000
         3         2         2         1         5         9     -0.00000000
         3         2         2         1         5        10      0.00014758
         3         2         2         1         5        11     -0.00027563
         3         2         2         1         5        12     -0.00000000
         3         2         2         1         6         1     -0.00095860
         3         2         2         1         6         2     -0.00054331
         3         2         2         1         6         3     -0.00000000
         3         2         2         1         6         4      0.00000000
         3         2         2         1         6         5      0.00138820
         3         2         2         1         6         6     -0.00120083
         3         2         2         1         6         7      0.00000000
         3         2         2         1         6         8      0.00000000
         3         2         2         1         6         9      0.00000000
         3         2         2         1         6        10      0.00027563
         3         2         2         1         6        11      0.00014758
         3         2         2         1         6        12      0.00000000
         3         2         2         1         7         1     -0.00000000
         3         2         2         1         7         2      0.00000000
         3         2         2         1         7         3     -0.00100761
         3         2         2         1         7         4      0.00150152
         3         2         2         1         7         5      0.00000000
         3         2         2         1         7         6     -0.00000000
         3         2         2         1         7         7     -0.00077365
         3         2         2         1         7         8     -0.00000000
         3         2         2         1         7         9     -0.00000000
         3         2         2         1         7        10      0.00000000
         3         2         2         1         7        11      0.00000000
         3         2         2         1         7        12     -0.00092288
         3         2         2         1         8         1     -0.00000000
         3         2         2         1         8         2     -0.00000000
         3         2         2         1         8         3      0.00008380
         3         2         2         1         8         4     -0.00001633
         3         2         2         1         8         5      0.00000000
         3         2         2         1         8         6      0.00000000
         3         2         2         1         8         7      0.00034980
         3         2         2         1         8         8     -0.00000000
         3         2         2         1         8         9     -0.00000000
         3         2         2         1         8        10     -0.00000000
         3         2         2         1         8        11     -0.00000000
         3         2         2         1         8        12     -0.00018460
         3         2         2         1         9         1     -0.00000000
         3         2         2         1         9         2      0.00000000
         3         2         2         1         9         3      0.00000000
         3         2         2         1         9         4     -0.00000000
         3         2         2         1         9         5     -0.00000000
         3         2         2         1         9         6     -0.00000000
         3         2         2         1         9         7      0.00000000
         3         2         2         1         9         8     -0.00018347
         3         2         2         1         9         9     -0.00000614
         3         2         2         1         9        10     -0.00000000
         3         2         2         1         9        11     -0.00000000
         3         2         2         1         9        12     -0.00000000
         3         2         2         1        10         1      0.00000000
         3         2         2         1        10         2     -0.00000000
         3         2         2         1        10         3      0.00000000
         3         2         2         1        10         4     -0.00000000
         3         2         2         1        10         5      0.00000000
         3         2         2         1        10         6      0.00000000
         3         2         2         1        10         7     -0.00000000
         3         2         2         1        10         8      0.00000614
         3         2         2         1        10         9     -0.00018347
         3         2         2         1        10        10      0.00000000
         3         2         2         1        10        11     -0.00000000
         3         2         2         1        10        12     -0.00000000
         3         2         2         1        11         1     -0.00059421
         3         2         2         1        11         2     -0.00027550
         3         2         2         1        11         3     -0.00000000
         3         2         2         1        11         4      0.00000000
         3         2         2         1        11         5      0.00079597
         3         2         2         1        11         6     -0.00081082
         3         2         2         1        11         7     -0.00000000
         3         2         2         1        11         8      0.00000000
         3         2         2         1        11         9      0.00000000
         3         2         2         1        11        10      0.00036622
         3         2         2         1        11        11      0.00015922
         3         2         2         1        11        12     -0.00000000
         3         2         2         1        12         1     -0.00027550
         3         2         2         1        12         2      0.00059421
         3         2         2         1        12         3      0.00000000
         3         2         2         1        12         4     -0.00000000
         3         2         2         1        12         5     -0.00081082
         3         2         2         1        12         6     -0.00079597
         3         2         2         1        12         7      0.00000000
         3         2         2         1        12         8      0.00000000
         3         2         2         1        12         9     -0.00000000
         3         2         2         1        12        10      0.00015922
         3         2         2         1        12        11     -0.00036622
         3         2         2         1        12        12     -0.00000000
         3         2         2         1        13         1     -0.00000000
         3         2         2         1        13         2      0.00000000
         3         2         2         1        13         3     -0.00150575
         3         2         2         1        13         4      0.00225932
         3         2         2         1        13         5      0.00000000
         3         2         2         1        13         6     -0.00000000
         3         2         2         1        13         7     -0.00128452
         3         2         2         1        13         8     -0.00000000
         3         2         2         1        13         9      0.00000000
         3         2         2         1        13        10      0.00000000
         3         2         2         1        13        11      0.00000000
         3         2         2         1        13        12     -0.00158443


 RESULTS
 =======

  Reference energy                    -14.869231121713

  Correlated core orbitals:             1.1       1.2
  Orbital energies:                    -2.4475   -2.4472

  CISD core-core energy                -0.000353170438
  CISD core-valence energy             -0.000519909879
  CISD valence correlation energy      -0.031133776067

  CISD singlet pair energy             -0.031842557714
  CISD triplet pair energy             -0.000143700206
  CISD correlation energy              -0.032006856384

 !CISD total energy                   -14.901237978097

 Timing summary (sec):

 STEP                 CPU(USER)    SYS     CPU(TOT)    WALL
 Transformation          0.01      0.00      0.01      0.01
 CCSD iterations         0.13      0.02      0.15      0.14

 Program statistics:

 Available memory in ccsd:                39999164
 Min. memory needed in ccsd:                 10373
 Max. memory used in ccsd:                   11100
 Max. memory used in cckext:                 43133 (32 integral passes)



 **********************************************************************************************************************************
 DATASETS  * FILE   NREC   LENGTH (MB)   RECORD NAMES
              1      20       30.08       500      700      610      900      950      970     1000      129      960     1100   
                                          VAR     GEOM    BASINP   SYMINP    ZMAT    AOBASIS   BASIS     P2S    ABASIS      S 
                                         1400     1410     1200     1210     1080     1600     1650     1300     1700     1380   
                                           T        V       H0       H01     AOSYM     SMH    MOLCAS    ERIS     OPER     JKOP   

              3       5       14.78       500      610      700     1000     2100   
                                          VAR    BASINP    GEOM     BASIS     RHF  

 PROGRAMS   *        TOTAL      CISD       INT   RESTART
 CPU TIMES  *         0.49      0.21      0.16      0.01
 REAL TIME  *         0.68 SEC
 DISK USED  *        49.46 MB
 **********************************************************************************************************************************
 Molecular orbitals read from record     2100.3  Type=RHF/CANONICAL (state 1.1)
 Occupation numbers read from record     2100.3  Type=RHF/RHF (state 1.1)
 Orbital energies read from record       2100.3  Type=RHF/CANONICAL (state 1.1)
 Redundancy group numbers read from rec  2100.3  Type=RHF/RHF (state 1.1)

 CISD/cc-pVDZ energy=    -14.901237978097

            CISD
    -14.90123798
 **********************************************************************************************************************************
 Molpro calculation terminated
