
 Primary working directories    : /scr/yuriaoto/job.023601/molpro.ge6RsHp41t
 Secondary working directories  : /scr/yuriaoto/job.023601/molpro.ge6RsHp41t
 Wavefunction directory         : /scr/yuriaoto/job.023601/
 Main file repository           : /scr/yuriaoto/job.023601/molpro.ge6RsHp41t/

 id        : yuriaoto

 Nodes             nprocs
 t-rex.ufabc.int.br    1

 Using customized tuning parameters: mindgm=8; mindgv=16; mindgc=1; mindgr=1; noblas=0; minvec=7
 default implementation of scratch files=df  


 Variables initialized (933), CPU time= 0.01 sec
 ***,
 memory,40,m
 gprint,orbital,basis,civector
 gthresh,printci=0.0,thrprint=0
 file,3,wfu.dat,old
 
 {bccd,SAVEORB=2150.2,print,CC_NORM_MAX=10.0
 thresh,printci=0.0,ENERGY=1.0E-10,COEFF=1.0E-12
 print,ref=1
 core,0
 wf,10,1,0;
 }
 
 {put,xml,orbitals.xml; orbital,2150.2; nosort; novariables}
 
 Commands  initialized (760), CPU time= 0.01 sec, 617 directives.
 Default parameters read. Elapsed time= 0.05 sec

 Checking input...
 Passed
1


                                         ***  PROGRAM SYSTEM MOLPRO  ***
                                       Copyright, TTI GmbH Stuttgart, 2015
                                    Version 2019.2 linked Abr  7 2019 15:10:35


 **********************************************************************************************************************************
 LABEL *                                                                                 
  64 bit serial version                                                                  DATE: 05-Jun-20          TIME: 21:33:32  
 **********************************************************************************************************************************

 SHA1:             3a8a58c585c929645742fb5a1b7541a4ad1da699
 **********************************************************************************************************************************


 THRESHOLDS:

 ZERO    =  1.00D-12  ONEINT  =  1.00D-12  TWOINT  =  1.00D-11  PREFAC  =  1.00D-14  XXXXXX  =  1.00D-09  EORDER  =  1.00D-04
 ENERGY  =  0.00D+00  ETEST   =  0.00D+00  EDENS   =  0.00D+00  THRDEDEF=  1.00D-06  GRADIENT=  1.00D-02  STEP    =  1.00D-03
 ORBITAL =  1.00D-05  CIVEC   =  1.00D-05  COEFF   =  1.00D-04  PRINTCI =  0.00D+00  PUNCHCI =  9.90D+01  OPTGRAD =  3.00D-04
 OPTENERG=  1.00D-06  OPTSTEP =  3.00D-04  THRGRAD =  1.00D-10  COMPRESS=  1.00D-11  VARMIN  =  1.00D-07  VARMAX  =  1.00D-03
 THRDOUB =  0.00D+00  THRDIV  =  1.00D-05  THRRED  =  1.00D-07  THRPSP  =  1.00D+00  THRDC   =  1.00D-10  THRCS   =  1.00D-10
 THRNRM  =  1.00D-08  THREQ   =  0.00D+00  THRDE   =  1.00D+00  THRREF  =  1.00D-05  SPARFAC =  1.00D+00  THRDLP  =  1.00D-07
 THRDIA  =  1.00D-10  THRDLS  =  1.00D-07  THRGPS  =  0.00D+00  THRKEX  =  0.00D+00  THRDIS  =  2.00D-01  THRVAR  =  1.00D-10
 THRLOC  =  1.00D-06  THRGAP  =  1.00D-06  THRLOCT = -1.00D+00  THRGAPT = -1.00D+00  THRORB  =  1.00D-06  THRMLTP =  0.00D+00
 THRCPQCI=  1.00D-10  KEXTA   =  0.00D+00  THRCOARS=  0.00D+00  SYMTOL  =  1.00D-06  GRADTOL =  1.00D-06  THROVL  =  1.00D-08
 THRORTH =  1.00D-08  GRID    =  1.00D-06  GRIDMAX =  1.00D-03  DTMAX   =  0.00D+00  THROCCDE=  1.00D-01  THROCCDE=  1.00D-01
 THRPRINT=  0.00D+00


 Variable memory set to   40000000 words,  buffer space 



 Permanent file  3  wfu.dat  assigned.  Implementation=df    Size= 14.09 MB


 PROGRAM * RESTART 


 Reading variables from file 3

 _FNUC           =      0.00000000
 _BASIS          =    STO-3G
 _NELEC          =     10.00000000
 _PROGRAM        =    HF-SCF
 _DMZ            =      0.67784267
 _DMX_SCF        =      0.00000000
 _DMY_SCF        =      0.00000000
 _DMZ_SCF        =      0.67784267
 _HOMO           =      1.20000000
 _EHOMO          =     -0.39115060
 _LUMO           =      4.10000000
 _ELUMO          =      0.60309969
 _ENERGY         =    -74.96335037
 _ENERGY_METHOD  =    HF
 _ENERGY_BASIS   =    STO-3G
 _ENUC           =      9.16842912
 _EPS1(1:3)      =    -20.24223838    -1.26711910    -0.45294489
 _EPS2           =     -0.39115060
 _EPS3           =     -0.61626064
 _IPROC_MPP      =      0.00000000
 _IPROC_MPPX     =      0.00000000
 _ORBITAL        =   2100.30000000
 _STATUS         =      1.00000000
 _DATE           =    21-Oct-19
 _LASTORB        =    RHF
 _OUTPUT         =    /scr/yuriaoto/job.022423/RHF.xml
 _PGROUP         =    C2v 
 _TIME           =    13:17:41
 R               =      0.96000000
 A               =    104.40000000

 Geometry written to block  1 of record 700


 **********************************************************************************************************************************
 DATASETS  * FILE   NREC   LENGTH (MB)   RECORD NAMES
              3       5       14.78       500      610      700     1000     2100   
                                          VAR    BASINP    GEOM     BASIS     RHF  

 PROGRAMS   *        TOTAL   RESTART
 CPU TIMES  *         0.14      0.03
 REAL TIME  *         0.17 SEC
 DISK USED  *        26.85 MB
 **********************************************************************************************************************************


 Recomputing integrals since basis changed


 Using spherical harmonics

 Library entry H      S STO-3G               selected for orbital group  1
 Library entry O      S STO-3G               selected for orbital group  2
 Library entry O      P STO-3G               selected for orbital group  2


 PROGRAM * SEWARD (Integral evaluation for generally contracted gaussian basis sets)     Author: Roland Lindh, 1990

 Geometry written to block  1 of record 700

 Orientation using atomic masses  
 Molecule type: Asymmetric top,     Order of principal axis = 2
 Symmetry elements: X,Y
 Rotational constants:     283.9621697    815.3763831    435.6978814 GHz  (calculated with average atomic masses)

 Point group  C2v 



 ATOMIC COORDINATES

 NR  ATOM    CHARGE       X              Y              Z

   1  H1      1.00    0.000000000   -1.433449507    0.987477933
   2  H2      1.00    0.000000000    1.433449507    0.987477933
   3  O       8.00    0.000000000    0.000000000   -0.124419479

 Bond lengths in Bohr (Angstrom)

 1-3  1.814137080  2-3  1.814137080
     ( 0.960000000)     ( 0.960000000)

 Bond angles

  1-3-2  104.40000000


 BASIS DATA

   Nr Sym  Nuc  Type         Exponents   Contraction coefficients

    1.1 A1    1  1s           3.425251     0.154329
              2  1s           0.623914     0.535328
                              0.168855     0.444635
    2.1 A1    3  1s         130.709320     0.154329
                             23.808861     0.535328
                              6.443608     0.444635
    3.1 A1    3  1s           5.033151    -0.099967
                              1.169596     0.399513
                              0.380389     0.700115
    4.1 A1    3  2pz          5.033151     0.155916
                              1.169596     0.607684
                              0.380389     0.391957
    1.2 B1    3  2px          5.033151     0.155916
                              1.169596     0.607684
                              0.380389     0.391957
    1.3 B2    1  1s           3.425251     0.154329
              2 -1s           0.623914     0.535328
                              0.168855     0.444635
    2.3 B2    3  2py          5.033151     0.155916
                              1.169596     0.607684
                              0.380389     0.391957

 NUCLEAR CHARGE:                   10
 NUMBER OF PRIMITIVE AOS:          21
 NUMBER OF SYMMETRY AOS:           21
 NUMBER OF CONTRACTIONS:            7   (    4A1  +    1B1  +    2B2  +    0A2  )
 NUMBER OF CORE ORBITALS:           1   (    1A1  +    0B1  +    0B2  +    0A2  )
 NUMBER OF VALENCE ORBITALS:        6   (    3A1  +    1B1  +    2B2  +    0A2  )


 NUCLEAR REPULSION ENERGY    9.16842912

 Eigenvalues of metric

         1 0.344E+00 0.886E+00 0.109E+01 0.193E+01
         2 0.100E+01
         3 0.419E+00 0.133E+01


 Contracted 2-electron integrals neglected if value below      1.0D-11
 AO integral compression algorithm  1   Integral accuracy      1.0D-11

     0.262 MB (compressed) written to integral file (100.0%)


 NUMBER OF SORTED TWO-ELECTRON INTEGRALS:        191.     BUFFER LENGTH:  32768
 NUMBER OF SEGMENTS:   1  SEGMENT LENGTH:        191      RECORD LENGTH: 524288

 Memory used in sort:       0.56 MW

 SORT1 READ         227. AND WROTE         171. INTEGRALS IN      1 RECORDS. CPU TIME:     0.00 SEC, REAL TIME:     0.01 SEC
 SORT2 READ         171. AND WROTE         191. INTEGRALS IN      1 RECORDS. CPU TIME:     0.01 SEC, REAL TIME:     0.00 SEC

 FILE SIZES:   FILE 1:    30.2 MBYTE,  FILE 4:     4.2 MBYTE,   TOTAL:     34.4 MBYTE

 OPERATOR DM      FOR CENTER  0  COORDINATES:    0.000000    0.000000    0.000000


 **********************************************************************************************************************************
 DATASETS  * FILE   NREC   LENGTH (MB)   RECORD NAMES
              1      19       29.95       500      700      610      900      950      970     1000      129      960     1100   
                                          VAR     GEOM    BASINP   SYMINP    ZMAT    AOBASIS   BASIS     P2S    ABASIS      S 
                                         1400     1410     1200     1210     1080     1600     1650     1300     1700   
                                           T        V       H0       H01     AOSYM     SMH    MOLCAS    ERIS     OPER   

              3       5       14.78       500      610      700     1000     2100   
                                          VAR    BASINP    GEOM     BASIS     RHF  

 PROGRAMS   *        TOTAL       INT   RESTART
 CPU TIMES  *         0.34      0.20      0.03
 REAL TIME  *         0.47 SEC
 DISK USED  *        49.45 MB
 **********************************************************************************************************************************


 PROGRAM * BCCD (Closed-shell Brueckner coupled-cluster)     Authors: C. Hampel, H.-J. Werner, 1991, M. Deegan, P.J. Knowles, 1992


 Input parameters for THRESH:

 ENERGY   =    1.00D-10
 COEFF    =    1.00D-12
 PRINTCI  =    0.000000
 THRPRINT =    0.000000

 Convergence thresholds:  THRVAR = 1.00D-24  THRDEN = 1.00D-10

 Number of closed-shell orbitals:   5 (   3   1   1 )
 Number of external orbitals:       2 (   1   0   1 )

 Molecular orbitals read from record     2100.3  Type=RHF/CANONICAL (state 1.1)

 Number of N-1 electron functions:               5
 Number of N-2 electron functions:              11
 Number of singly external CSFs:                 4
 Number of doubly external CSFs:                22
 Total number of CSFs:                          27

 Brueckner orbitals will be computed and saved on record    2150.2

 Length of J-op  integral file:               0.00 MB
 Length of K-op  integral file:               0.03 MB

 Integral transformation finished. Total CPU:   0.00 sec, npass=  1  Memory used:   0.07 MW

 Reference energy:                    -74.96335037

 MP2 singles energy:                   -0.00000000
 MP2 singlet pair energy:              -0.03267137
 MP2 triplet pair energy:              -0.00306878
 MP2 correlation energy:               -0.03574015
 MP2 total energy:                    -74.99909052

 SCS-MP2 correlation energy:           -0.04111511   (PS=  1.200000  PT=  0.333333)
 SCS-MP2 total energy:                -75.00446548

 ITER.      SQ.NORM     CORR.ENERGY   TOTAL ENERGY   ENERGY CHANGE        DEN1      VAR(S)    VAR(P)  DIIS     TIME  TIME/IT
   1      1.02089494    -0.04794511   -75.01129548    -0.01220496    -0.00875837  0.68D-04  0.95D-03  1  1     0.01     0.00
   2      1.02639256    -0.04948620   -75.01276728    -0.00154110    -0.00519992  0.19D-04  0.16D-03  2  2     0.01     0.00
   3      1.02674906    -0.04991390   -75.01306096    -0.00042770    -0.00024258  0.26D-05  0.31D-05  3  3     0.01     0.00
   4      1.02676362    -0.04997157   -75.01307251    -0.00005767    -0.00004447  0.18D-06  0.10D-06  4  4     0.01     0.00
   5      1.02675632    -0.04998779   -75.01307283    -0.00001622    -0.00000235  0.13D-08  0.17D-08  5  5     0.01     0.00
   6      1.02675627    -0.04998898   -75.01307281    -0.00000119    -0.00000116  0.77D-10  0.16D-09  6  6     0.02     0.00
   7      1.02675641    -0.04998920   -75.01307280    -0.00000022    -0.00000019  0.44D-11  0.11D-10  6  1     0.02     0.00
   8      1.02675638    -0.04998921   -75.01307280    -0.00000001     0.00000001  0.68D-13  0.43D-12  6  2     0.02     0.00
   9      1.02675640    -0.04998922   -75.01307280    -0.00000001    -0.00000003  0.79D-14  0.28D-13  6  3     0.02     0.00
  10      1.02675640    -0.04998922   -75.01307280    -0.00000000    -0.00000000  0.13D-15  0.13D-14  6  4     0.02     0.00
  11      1.02675640    -0.04998922   -75.01307280    -0.00000000     0.00000000  0.33D-17  0.14D-15  6  5     0.02     0.00
  12      1.02675640    -0.04998922   -75.01307280    -0.00000000     0.00000000  0.27D-17  0.47D-17  6  6     0.03     0.00
  13      1.02675640    -0.04998922   -75.01307280     0.00000000    -0.00000000  0.67D-18  0.31D-18  6  1     0.03     0.00
  14      1.02675640    -0.04998922   -75.01307280     0.00000000     0.00000000  0.27D-19  0.19D-19  6  2     0.03     0.00
  15      1.02675640    -0.04998922   -75.01307280     0.00000000     0.00000000  0.13D-20  0.25D-20  6  3     0.03     0.00
  16      1.02675640    -0.04998922   -75.01307280     0.00000000     0.00000000  0.29D-23  0.88D-22  6  5     0.03     0.00
  17      1.02675640    -0.04998922   -75.01307280    -0.00000000    -0.00000000  0.24D-24  0.70D-23  6  4     0.03     0.00
  18      1.02675640    -0.04998922   -75.01307280     0.00000000    -0.00000000  0.94D-26  0.89D-25  6  6     0.04     0.00

 Norm of t1 vector:      0.00000000      S-energy:    -0.00000000      T1 diagnostic:  0.00000000

 Orbital rotation generators (print threshold =  0.000E+00):

         I         SYM. A    A   T(IA)

         1         1         1      0.00003169
         2         1         1     -0.00039929
         3         1         1      0.01266501
         5         3         1     -0.00232735

 Doubles amplitudes (print threshold =  0.000E+00):

         I         J         SYM. A    SYM. B    A         B      T(IJ, AB)

         1         1         1         1         1         1     -0.00064870
         1         1         3         3         1         1     -0.00042416
         2         1         1         1         1         1     -0.00028758
         2         1         3         3         1         1     -0.00073283
         2         2         1         1         1         1     -0.03236885
         2         2         3         3         1         1     -0.01661276
         3         1         1         1         1         1     -0.00011725
         3         1         3         3         1         1      0.00052013
         3         2         1         1         1         1     -0.03327645
         3         2         3         3         1         1      0.00359857
         3         3         1         1         1         1     -0.04689765
         3         3         3         3         1         1     -0.04219931
         4         4         1         1         1         1     -0.02611201
         4         4         3         3         1         1     -0.01062527
         5         5         1         1         1         1     -0.04373097
         5         5         3         3         1         1     -0.07841819
         5         1         1         3         1         1      0.00023565
         5         1         3         1         1         1     -0.00024674
         5         2         1         3         1         1      0.02061373
         5         2         3         1         1         1      0.03137291
         5         3         1         3         1         1      0.03499412
         5         3         3         1         1         1      0.04761622


 RESULTS
 =======

  Reference energy                    -74.963083585642

  Correlated core orbitals:             1.1
  Orbital energies:                   -20.2563

  BCCD core-core energy                -0.000029303879
  BCCD core-valence energy             -0.000060505599
  BCCD valence correlation energy      -0.049899408481

  BCCD singlet pair energy             -0.047331853818
  BCCD triplet pair energy             -0.002657364140
  BCCD correlation energy              -0.049989217958

 !BCCD total energy                   -75.013072803600

 Approximate expectation values using Brueckner orbitals

 !BCCD(ref) STATE  1.1 Dipole momen     0.00000000     0.00000000     0.64738223
 Dipole moment /Debye                   0.00000000     0.00000000     1.64537373

 Brueckner orbitals saved on record           2150.2 (orbital set 1)
 Brueckner density (ref) saved on record      2150.2 (density set 1)

 Brueckner orbitals
 ==================

   Orb     Occ           Coefficients

                         1 1s      2 1s      2 1s      2 2pz  

   1.1    2.0000000   -0.008365  0.994141  0.026474  0.004299

   2.1    2.0000000    0.223717 -0.232938  0.834845  0.129049

   3.1    2.0000000    0.408889  0.104769 -0.547412  0.766282

                         2 2px  

   1.2    2.0000000    1.000000

                         1 1s      2 2py  

   1.3    2.0000000   -0.632439  0.604205

 Timing summary (sec):

 STEP                 CPU(USER)    SYS     CPU(TOT)    WALL
 Transformation          0.02      0.00      0.02      0.02
 CCSD iterations         0.04      0.03      0.07      0.07

 Program statistics:

 Available memory in ccsd:                39999100
 Min. memory needed in ccsd:                   865
 Max. memory used in ccsd:                     865
 Max. memory used in cckext:                 33876 (18 integral passes)



 **********************************************************************************************************************************
 DATASETS  * FILE   NREC   LENGTH (MB)   RECORD NAMES
              1      20       29.96       500      700      610      900      950      970     1000      129      960     1100   
                                          VAR     GEOM    BASINP   SYMINP    ZMAT    AOBASIS   BASIS     P2S    ABASIS      S 
                                         1400     1410     1200     1210     1080     1600     1650     1300     1700     1380   
                                           T        V       H0       H01     AOSYM     SMH    MOLCAS    ERIS     OPER     JKOP   

              2       4        2.75       700     1000      520     2150   
                                         GEOM     BASIS   MCVARS    BCCD   

              3       5       14.78       500      610      700     1000     2100   
                                          VAR    BASINP    GEOM     BASIS     RHF  

 PROGRAMS   *        TOTAL      BCCD       INT   RESTART
 CPU TIMES  *         0.43      0.09      0.20      0.03
 REAL TIME  *         0.60 SEC
 DISK USED  *        49.45 MB
 **********************************************************************************************************************************

 Dump information in style XML to orbitals.xml                                                                    

 Variables will not be exported.
 Molecular orbitals read from record     2150.2  Type=BCCD/BRUECKNER (state 1.1)
 Occupation numbers read from record     2150.2  Type=BCCD/BRUECKNER (state 1.1)

 No orbital energies found for orbital set 0

 No redundancy group numbers found for orbital set 0

 **********************************************************************************************************************************

 BCCD/STO-3G energy=    -75.013072803600

            BCCD
    -75.01307280
 **********************************************************************************************************************************
 Molpro calculation terminated
