
 Primary working directories    : /scr/yuriaoto/job.023356/molpro.OJ7MNutFeq
 Secondary working directories  : /scr/yuriaoto/job.023356/molpro.OJ7MNutFeq
 Wavefunction directory         : /scr/yuriaoto/job.023356/
 Main file repository           : /scr/yuriaoto/job.023356/molpro.OJ7MNutFeq/

 id        : yuriaoto

 Nodes             nprocs
 t-rex.ufabc.int.br    1

 Using customized tuning parameters: mindgm=8; mindgv=16; mindgc=1; mindgr=1; noblas=0; minvec=7
 default implementation of scratch files=df  


 Variables initialized (933), CPU time= 0.00 sec
 ***,
 memory,400,m
 gprint,orbital,basis,civector
 gthresh,thrprint=0,printci=0.0
 file,3,wfu.dat,old
 
 {fci
 wf,10,1,0
 }
 
 Commands  initialized (760), CPU time= 0.01 sec, 617 directives.
 Default parameters read. Elapsed time= 0.04 sec

 Checking input...
 Passed
1


                                         ***  PROGRAM SYSTEM MOLPRO  ***
                                       Copyright, TTI GmbH Stuttgart, 2015
                                    Version 2019.2 linked Abr  7 2019 15:10:35


 **********************************************************************************************************************************
 LABEL *                                                                                 
  64 bit serial version                                                                  DATE: 02-Jun-20          TIME: 00:01:28  
 **********************************************************************************************************************************

 SHA1:             3a8a58c585c929645742fb5a1b7541a4ad1da699
 **********************************************************************************************************************************


 THRESHOLDS:

 ZERO    =  1.00D-12  ONEINT  =  1.00D-12  TWOINT  =  1.00D-11  PREFAC  =  1.00D-14  XXXXXX  =  1.00D-09  EORDER  =  1.00D-04
 ENERGY  =  0.00D+00  ETEST   =  0.00D+00  EDENS   =  0.00D+00  THRDEDEF=  1.00D-06  GRADIENT=  1.00D-02  STEP    =  1.00D-03
 ORBITAL =  1.00D-05  CIVEC   =  1.00D-05  COEFF   =  1.00D-04  PRINTCI =  0.00D+00  PUNCHCI =  9.90D+01  OPTGRAD =  3.00D-04
 OPTENERG=  1.00D-06  OPTSTEP =  3.00D-04  THRGRAD =  1.00D-10  COMPRESS=  1.00D-11  VARMIN  =  1.00D-07  VARMAX  =  1.00D-03
 THRDOUB =  0.00D+00  THRDIV  =  1.00D-05  THRRED  =  1.00D-07  THRPSP  =  1.00D+00  THRDC   =  1.00D-10  THRCS   =  1.00D-10
 THRNRM  =  1.00D-08  THREQ   =  0.00D+00  THRDE   =  1.00D+00  THRREF  =  1.00D-05  SPARFAC =  1.00D+00  THRDLP  =  1.00D-07
 THRDIA  =  1.00D-10  THRDLS  =  1.00D-07  THRGPS  =  0.00D+00  THRKEX  =  0.00D+00  THRDIS  =  2.00D-01  THRVAR  =  1.00D-10
 THRLOC  =  1.00D-06  THRGAP  =  1.00D-06  THRLOCT = -1.00D+00  THRGAPT = -1.00D+00  THRORB  =  1.00D-06  THRMLTP =  0.00D+00
 THRCPQCI=  1.00D-10  KEXTA   =  0.00D+00  THRCOARS=  0.00D+00  SYMTOL  =  1.00D-06  GRADTOL =  1.00D-06  THROVL  =  1.00D-08
 THRORTH =  1.00D-08  GRID    =  1.00D-06  GRIDMAX =  1.00D-03  DTMAX   =  0.00D+00  THROCCDE=  1.00D-01  THROCCDE=  1.00D-01
 THRPRINT=  0.00D+00


 Variable memory set to  400000000 words,  buffer space 



 Permanent file  3  wfu.dat  assigned.  Implementation=df    Size= 14.09 MB


 PROGRAM * RESTART 


 Reading variables from file 3

 _FNUC           =      0.00000000
 _BASIS          =    STO-3G
 _NELEC          =     10.00000000
 _PROGRAM        =    HF-SCF
 _DMZ            =      0.67784267
 _DMX_SCF        =      0.00000000
 _DMY_SCF        =      0.00000000
 _DMZ_SCF        =      0.67784267
 _HOMO           =      1.20000000
 _EHOMO          =     -0.39115060
 _LUMO           =      4.10000000
 _ELUMO          =      0.60309969
 _ENERGY         =    -74.96335037
 _ENERGY_METHOD  =    HF
 _ENERGY_BASIS   =    STO-3G
 _ENUC           =      9.16842912
 _EPS1(1:3)      =    -20.24223838    -1.26711910    -0.45294489
 _EPS2           =     -0.39115060
 _EPS3           =     -0.61626064
 _IPROC_MPP      =      0.00000000
 _IPROC_MPPX     =      0.00000000
 _ORBITAL        =   2100.30000000
 _STATUS         =      1.00000000
 _DATE           =    21-Oct-19
 _LASTORB        =    RHF
 _OUTPUT         =    /scr/yuriaoto/job.022423/RHF.xml
 _PGROUP         =    C2v 
 _TIME           =    13:17:41
 R               =      0.96000000
 A               =    104.40000000

 Geometry written to block  1 of record 700


 **********************************************************************************************************************************
 DATASETS  * FILE   NREC   LENGTH (MB)   RECORD NAMES
              3       5       14.78       500      610      700     1000     2100   
                                          VAR    BASINP    GEOM     BASIS     RHF  

 PROGRAMS   *        TOTAL   RESTART
 CPU TIMES  *         0.12      0.02
 REAL TIME  *         0.14 SEC
 DISK USED  *        26.85 MB
 **********************************************************************************************************************************


 Recomputing integrals since basis changed


 Using spherical harmonics

 Library entry H      S STO-3G               selected for orbital group  1
 Library entry O      S STO-3G               selected for orbital group  2
 Library entry O      P STO-3G               selected for orbital group  2


 PROGRAM * SEWARD (Integral evaluation for generally contracted gaussian basis sets)     Author: Roland Lindh, 1990

 Geometry written to block  1 of record 700

 Orientation using atomic masses  
 Molecule type: Asymmetric top,     Order of principal axis = 2
 Symmetry elements: X,Y
 Rotational constants:     283.9621697    815.3763831    435.6978814 GHz  (calculated with average atomic masses)

 Point group  C2v 



 ATOMIC COORDINATES

 NR  ATOM    CHARGE       X              Y              Z

   1  H1      1.00    0.000000000   -1.433449507    0.987477933
   2  H2      1.00    0.000000000    1.433449507    0.987477933
   3  O       8.00    0.000000000    0.000000000   -0.124419479

 Bond lengths in Bohr (Angstrom)

 1-3  1.814137080  2-3  1.814137080
     ( 0.960000000)     ( 0.960000000)

 Bond angles

  1-3-2  104.40000000


 BASIS DATA

   Nr Sym  Nuc  Type         Exponents   Contraction coefficients

    1.1 A1    1  1s           3.425251     0.154329
              2  1s           0.623914     0.535328
                              0.168855     0.444635
    2.1 A1    3  1s         130.709320     0.154329
                             23.808861     0.535328
                              6.443608     0.444635
    3.1 A1    3  1s           5.033151    -0.099967
                              1.169596     0.399513
                              0.380389     0.700115
    4.1 A1    3  2pz          5.033151     0.155916
                              1.169596     0.607684
                              0.380389     0.391957
    1.2 B1    3  2px          5.033151     0.155916
                              1.169596     0.607684
                              0.380389     0.391957
    1.3 B2    1  1s           3.425251     0.154329
              2 -1s           0.623914     0.535328
                              0.168855     0.444635
    2.3 B2    3  2py          5.033151     0.155916
                              1.169596     0.607684
                              0.380389     0.391957

 NUCLEAR CHARGE:                   10
 NUMBER OF PRIMITIVE AOS:          21
 NUMBER OF SYMMETRY AOS:           21
 NUMBER OF CONTRACTIONS:            7   (    4A1  +    1B1  +    2B2  +    0A2  )
 NUMBER OF CORE ORBITALS:           1   (    1A1  +    0B1  +    0B2  +    0A2  )
 NUMBER OF VALENCE ORBITALS:        6   (    3A1  +    1B1  +    2B2  +    0A2  )


 NUCLEAR REPULSION ENERGY    9.16842912

 Eigenvalues of metric

         1 0.344E+00 0.886E+00 0.109E+01 0.193E+01
         2 0.100E+01
         3 0.419E+00 0.133E+01


 Contracted 2-electron integrals neglected if value below      1.0D-11
 AO integral compression algorithm  1   Integral accuracy      1.0D-11

     0.262 MB (compressed) written to integral file (100.0%)


 NUMBER OF SORTED TWO-ELECTRON INTEGRALS:        191.     BUFFER LENGTH:  32768
 NUMBER OF SEGMENTS:   1  SEGMENT LENGTH:        191      RECORD LENGTH: 524288

 Memory used in sort:       0.56 MW

 SORT1 READ         227. AND WROTE         171. INTEGRALS IN      1 RECORDS. CPU TIME:     0.00 SEC, REAL TIME:     0.00 SEC
 SORT2 READ         171. AND WROTE         191. INTEGRALS IN      1 RECORDS. CPU TIME:     0.00 SEC, REAL TIME:     0.00 SEC

 FILE SIZES:   FILE 1:    30.2 MBYTE,  FILE 4:     4.2 MBYTE,   TOTAL:     34.4 MBYTE

 OPERATOR DM      FOR CENTER  0  COORDINATES:    0.000000    0.000000    0.000000


 **********************************************************************************************************************************
 DATASETS  * FILE   NREC   LENGTH (MB)   RECORD NAMES
              1      19       29.95       500      700      610      900      950      970     1000      129      960     1100   
                                          VAR     GEOM    BASINP   SYMINP    ZMAT    AOBASIS   BASIS     P2S    ABASIS      S 
                                         1400     1410     1200     1210     1080     1600     1650     1300     1700   
                                           T        V       H0       H01     AOSYM     SMH    MOLCAS    ERIS     OPER   

              3       5       14.78       500      610      700     1000     2100   
                                          VAR    BASINP    GEOM     BASIS     RHF  

 PROGRAMS   *        TOTAL       INT   RESTART
 CPU TIMES  *         0.30      0.18      0.02
 REAL TIME  *         0.81 SEC
 DISK USED  *        49.45 MB
 **********************************************************************************************************************************


 PROGRAM * FCI (Full CI)     Author: P.J. Knowles, 1984


 Molecular orbitals read from record     2100.3  Type=RHF/CANONICAL (state 1.1)

 Frozen orbitals:              1 (  1  0  0  0  0  0  0  0)
 Active orbitals:              6 (  3  1  2  0  0  0  0  0)
 Active electrons:             8
 Spin quantum number:          0.0
 Orbital pairs:                    10       3       6       2       0       0       0       0
 Strings:                           3       4       2       6       0       0       0       0
                                    3       4       2       6       0       0       0       0
 Determinants:                             65              48              60              52
                                            0               0               0               0

 Load integrals                1.5 sec
 Transform integrals           1.5 sec
 Storage for integrals:            227
 Remaining memory:           399998852

 Core energy:             -51.48715262
 Run Hamiltonian processor DAVIDSON
 Symmetry:                   1
 Trial vector:                  0.00
 Result vector:                 0.00
 Maximum iterations:           90
 Convergence threshold:         0.0000100
 RHS vector:                    0.00
 Hamiltonian shift:             0.0000000
 Output threshold:              0.0000000
 Options:                        0
 Number of roots:             1

 Hamiltonian diagonaliser entered at time      1.46

 Initial configuration generated:
      30      1.0000000    -74.9633504

 It  Tr    CPU  Convergence   Energy       Pop     dE(next)

  1   1    1.5  1.00000000   -74.96335037
                                           0.23 -0.05442238 -0.04936126
  2   1    1.5  0.15531682   -75.00911474
                                           0.23 -0.00395152 -0.00349763
  3   1    1.5  0.04572909   -75.01271743
                                           0.23 -0.00041367 -0.00033150
  4   1    1.5  0.01205269   -75.01301299
                                           0.28 -0.00010877 -0.00009628
  5   1    1.5  0.00734553   -75.01310579
                                           0.29 -0.00001906 -0.00001627
  6   1    1.5  0.00289956   -75.01312137
                                           0.43 -0.00000330 -0.00000279
  7   1    1.5  0.00107953   -75.01312404
                                           0.34 -0.00000040 -0.00000033
  8   1    1.5  0.00040224   -75.01312436
                                           0.34 -0.00000006 -0.00000005
  9   1    1.5  0.00015946   -75.01312440
                                           0.22 -0.00000001 -0.00000001
 10   1    1.5  0.00006384   -75.01312441
                                           0.29 -0.00000000 -0.00000000
 11   1    1.5  0.00003262   -75.01312441
                                           0.35 -0.00000000 -0.00000000
 12   1    1.5  0.00001362   -75.01312441
                                           0.34 -0.00000000 -0.00000000
 13   1    1.5  0.00000548   -75.01312441


RESULTS FOR STATE  1.1
=====================

 Correlation energy                    -0.049774045883
 !FCI STATE  1.1 Energy               -75.013124414918
 CI Vector (threshold=  0.00    )
      -0.010217725282  1  2  3  6  7  1  2  3  6  7
       0.000077115102  1  2  3  6  7  1  2  4  6  7
      -0.000121035956  1  2  3  6  7  1  3  4  6  7
       0.000077115102  1  2  4  6  7  1  2  3  6  7
       0.001440573429  1  2  4  6  7  1  2  4  6  7
      -0.000341113584  1  2  4  6  7  1  3  4  6  7
      -0.000121035956  1  3  4  6  7  1  2  3  6  7
      -0.000341113584  1  3  4  6  7  1  2  4  6  7
       0.000744159493  1  3  4  6  7  1  3  4  6  7
      -0.043391778956  1  2  3  4  5  1  2  3  4  5
      -0.034495652767  1  2  3  4  5  1  2  5  6  7
       0.020343646143  1  2  3  4  5  1  3  5  6  7
      -0.000046534141  1  2  3  4  5  1  4  5  6  7
      -0.034495652767  1  2  5  6  7  1  2  3  4  5
      -0.041594803697  1  2  5  6  7  1  2  5  6  7
      -0.003779093843  1  2  5  6  7  1  3  5  6  7
       0.001741799122  1  2  5  6  7  1  4  5  6  7
       0.020343646143  1  3  5  6  7  1  2  3  4  5
      -0.003779093843  1  3  5  6  7  1  2  5  6  7
      -0.016519944447  1  3  5  6  7  1  3  5  6  7
       0.001001178590  1  3  5  6  7  1  4  5  6  7
      -0.000046534141  1  4  5  6  7  1  2  3  4  5
       0.001741799122  1  4  5  6  7  1  2  5  6  7
       0.001001178590  1  4  5  6  7  1  3  5  6  7
       0.002137111829  1  4  5  6  7  1  4  5  6  7
      -0.026730063148  1  2  3  4  6  1  2  3  4  6
      -0.002636006628  1  2  3  4  6  1  2  3  4  7
      -0.002636006628  1  2  3  4  7  1  2  3  4  6
       0.002283337293  1  2  3  4  7  1  2  3  4  7
       0.986553230091  1  2  3  5  6  1  2  3  5  6
      -0.002974736363  1  2  3  5  6  1  2  3  5  7
       0.012647941525  1  2  3  5  6  1  2  4  5  6
       0.012541116356  1  2  3  5  6  1  2  4  5  7
       0.000051233363  1  2  3  5  6  1  3  4  5  6
      -0.010767002685  1  2  3  5  6  1  3  4  5  7
      -0.002974736363  1  2  3  5  7  1  2  3  5  6
      -0.077384248190  1  2  3  5  7  1  2  3  5  7
       0.047037276534  1  2  3  5  7  1  2  4  5  6
      -0.001671972795  1  2  3  5  7  1  2  4  5  7
      -0.031110362512  1  2  3  5  7  1  3  4  5  6
       0.000159597879  1  2  3  5  7  1  3  4  5  7
       0.012647941525  1  2  4  5  6  1  2  3  5  6
       0.047037276534  1  2  4  5  6  1  2  3  5  7
      -0.046152282754  1  2  4  5  6  1  2  4  5  6
      -0.000475973620  1  2  4  5  6  1  2  4  5  7
       0.033057010557  1  2  4  5  6  1  3  4  5  6
       0.001099848880  1  2  4  5  6  1  3  4  5  7
       0.012541116356  1  2  4  5  7  1  2  3  5  6
      -0.001671972795  1  2  4  5  7  1  2  3  5  7
      -0.000475973620  1  2  4  5  7  1  2  4  5  6
       0.009501277440  1  2  4  5  7  1  2  4  5  7
       0.001146526256  1  2  4  5  7  1  3  4  5  6
      -0.004978007411  1  2  4  5  7  1  3  4  5  7
       0.000051233363  1  3  4  5  6  1  2  3  5  6
      -0.031110362512  1  3  4  5  6  1  2  3  5  7
       0.033057010557  1  3  4  5  6  1  2  4  5  6
       0.001146526256  1  3  4  5  6  1  2  4  5  7
      -0.031802989893  1  3  4  5  6  1  3  4  5  6
      -0.000131727016  1  3  4  5  6  1  3  4  5  7
      -0.010767002685  1  3  4  5  7  1  2  3  5  6
       0.000159597879  1  3  4  5  7  1  2  3  5  7
       0.001099848880  1  3  4  5  7  1  2  4  5  6
      -0.004978007411  1  3  4  5  7  1  2  4  5  7
      -0.000131727016  1  3  4  5  7  1  3  4  5  6
       0.005097421577  1  3  4  5  7  1  3  4  5  7
 /EOF
 !FCI STATE  1.1 Dipole moment          0.00000000     0.00000000     0.63449044
 Dipole moment /Debye                   0.00000000     0.00000000     1.61260822


 **********************************************************************************************************************************
 DATASETS  * FILE   NREC   LENGTH (MB)   RECORD NAMES
              1      19       29.95       500      700      610      900      950      970     1000      129      960     1100   
                                          VAR     GEOM    BASINP   SYMINP    ZMAT    AOBASIS   BASIS     P2S    ABASIS      S 
                                         1400     1410     1200     1210     1080     1600     1650     1300     1700   
                                           T        V       H0       H01     AOSYM     SMH    MOLCAS    ERIS     OPER   

              3       5       14.78       500      610      700     1000     2100   
                                          VAR    BASINP    GEOM     BASIS     RHF  

 PROGRAMS   *        TOTAL       FCI       INT   RESTART
 CPU TIMES  *         0.32      0.02      0.18      0.02
 REAL TIME  *         0.83 SEC
 DISK USED  *        49.45 MB
 **********************************************************************************************************************************
 Molecular orbitals read from record     2100.3  Type=RHF/CANONICAL (state 1.1)
 Occupation numbers read from record     2100.3  Type=RHF/RHF (state 1.1)
 Orbital energies read from record       2100.3  Type=RHF/CANONICAL (state 1.1)
 Redundancy group numbers read from rec  2100.3  Type=RHF/RHF (state 1.1)

 FCI/STO-3G energy=    -75.013124414918

             FCI
    -75.01312441
 **********************************************************************************************************************************
 Molpro calculation terminated
