
 Primary working directories    : /scr/yuriaoto/job.023583/molpro.15nw9pchK6
 Secondary working directories  : /scr/yuriaoto/job.023583/molpro.15nw9pchK6
 Wavefunction directory         : /scr/yuriaoto/job.023583/
 Main file repository           : /scr/yuriaoto/job.023583/molpro.15nw9pchK6/

 id        : yuriaoto

 Nodes             nprocs
 t-rex.ufabc.int.br    1

 Using customized tuning parameters: mindgm=8; mindgv=16; mindgc=1; mindgr=1; noblas=0; minvec=7
 default implementation of scratch files=df  


 Variables initialized (933), CPU time= 0.00 sec
 ***,
 memory,40,m
 gprint,orbital,basis,civector
 gthresh,printci=0.0,thrprint=0
 file,3,wfu.dat,old
 
 {bccd,SAVEORB=2150.2,print,CC_NORM_MAX=10.0
 thresh,printci=0.0,ENERGY=1.0E-10,COEFF=1.0E-12
 print,ref=1
 core,0
 wf,14,1,0;
 }
 
 {put,xml,orbitals.xml; orbital,2150.2; nosort; novariables}
 
 Commands  initialized (760), CPU time= 0.01 sec, 617 directives.
 Default parameters read. Elapsed time= 0.04 sec

 Checking input...
 Passed
1


                                         ***  PROGRAM SYSTEM MOLPRO  ***
                                       Copyright, TTI GmbH Stuttgart, 2015
                                    Version 2019.2 linked Abr  7 2019 15:10:35


 **********************************************************************************************************************************
 LABEL *                                                                                 
  64 bit serial version                                                                  DATE: 05-Jun-20          TIME: 21:21:26  
 **********************************************************************************************************************************

 SHA1:             3a8a58c585c929645742fb5a1b7541a4ad1da699
 **********************************************************************************************************************************


 THRESHOLDS:

 ZERO    =  1.00D-12  ONEINT  =  1.00D-12  TWOINT  =  1.00D-11  PREFAC  =  1.00D-14  XXXXXX  =  1.00D-09  EORDER  =  1.00D-04
 ENERGY  =  0.00D+00  ETEST   =  0.00D+00  EDENS   =  0.00D+00  THRDEDEF=  1.00D-06  GRADIENT=  1.00D-02  STEP    =  1.00D-03
 ORBITAL =  1.00D-05  CIVEC   =  1.00D-05  COEFF   =  1.00D-04  PRINTCI =  0.00D+00  PUNCHCI =  9.90D+01  OPTGRAD =  3.00D-04
 OPTENERG=  1.00D-06  OPTSTEP =  3.00D-04  THRGRAD =  1.00D-10  COMPRESS=  1.00D-11  VARMIN  =  1.00D-07  VARMAX  =  1.00D-03
 THRDOUB =  0.00D+00  THRDIV  =  1.00D-05  THRRED  =  1.00D-07  THRPSP  =  1.00D+00  THRDC   =  1.00D-10  THRCS   =  1.00D-10
 THRNRM  =  1.00D-08  THREQ   =  0.00D+00  THRDE   =  1.00D+00  THRREF  =  1.00D-05  SPARFAC =  1.00D+00  THRDLP  =  1.00D-07
 THRDIA  =  1.00D-10  THRDLS  =  1.00D-07  THRGPS  =  0.00D+00  THRKEX  =  0.00D+00  THRDIS  =  2.00D-01  THRVAR  =  1.00D-10
 THRLOC  =  1.00D-06  THRGAP  =  1.00D-06  THRLOCT = -1.00D+00  THRGAPT = -1.00D+00  THRORB  =  1.00D-06  THRMLTP =  0.00D+00
 THRCPQCI=  1.00D-10  KEXTA   =  0.00D+00  THRCOARS=  0.00D+00  SYMTOL  =  1.00D-06  GRADTOL =  1.00D-06  THROVL  =  1.00D-08
 THRORTH =  1.00D-08  GRID    =  1.00D-06  GRIDMAX =  1.00D-03  DTMAX   =  0.00D+00  THROCCDE=  1.00D-01  THROCCDE=  1.00D-01
 THRPRINT=  0.00D+00


 Variable memory set to   40000000 words,  buffer space 



 Permanent file  3  wfu.dat  assigned.  Implementation=df    Size= 14.08 MB


 PROGRAM * RESTART 


 Reading variables from file 3

 _FNUC           =      0.00000000
 _BASIS          =    6-31G
 _NELEC          =     14.00000000
 _PROGRAM        =    RHF-SCF
 _DMX_SCF        =      0.00000000
 _DMY_SCF        =      0.00000000
 _DMZ_SCF        =      0.00000000
 _HOMO           =      1.20000000
 _EHOMO          =     -0.47733994
 _LUMO           =      1.60000000
 _ELUMO          =     -0.02720870
 _ENERGY         =   -108.56037943
 _ENERGY_METHOD  =    RHF
 _ENERGY_BASIS   =    6-31G
 _ENUC           =     16.33333333
 _EPS1(1:5)      =    -15.81771777    -1.22408989    -0.55476884     0.90356566     1.08163906
 _EPS2(1:2)      =     -0.47733994     0.86881343
 _EPS3(1:2)      =     -0.47733994     0.86881343
 _EPS5(1:5)      =    -15.81713369    -0.91208671     0.20403463     0.84931301     1.30241938
 _EPS6(1:2)      =     -0.02720870     0.95746624
 _EPS7(1:2)      =     -0.02720870     0.95746624
 _IPROC_MPP      =      0.00000000
 _IPROC_MPPX     =      0.00000000
 _ORBITAL        =   2100.30000000
 _STATUS         =      1.00000000
 _DATE           =    20-Mar-20
 _LASTORB        =    RHF
 _OUTPUT         =    /scr/yuriaoto/job.022805/RHF.xml
 _PGROUP         =    D2h 
 _TIME           =    18:50:32
 R               =      3.00000000

 Geometry written to block  1 of record 700


 **********************************************************************************************************************************
 DATASETS  * FILE   NREC   LENGTH (MB)   RECORD NAMES
              3       5       14.77       500      610      700     1000     2100   
                                          VAR    BASINP    GEOM     BASIS     RHF  

 PROGRAMS   *        TOTAL   RESTART
 CPU TIMES  *         0.13      0.02
 REAL TIME  *         0.15 SEC
 DISK USED  *        26.84 MB
 **********************************************************************************************************************************


 Recomputing integrals since basis changed


 Using spherical harmonics

 Library entry N      S 6-31G                selected for orbital group  1
 Library entry N      P 6-31G                selected for orbital group  1


 PROGRAM * SEWARD (Integral evaluation for generally contracted gaussian basis sets)     Author: Roland Lindh, 1990

 Geometry written to block  1 of record 700

 Orientation using atomic masses  
 Molecule type: Linear
 User-specified symmetry elements: X,Y,Z
 Symmetry elements: X,Y,Z
 Rotational constants:      28.6329822     28.6329822      0.0000000 GHz  (calculated with average atomic masses)

 Point group  D2h 



 ATOMIC COORDINATES

 NR  ATOM    CHARGE       X              Y              Z

   1  N1      7.00    0.000000000    0.000000000   -1.500000000
   2  N2      7.00    0.000000000    0.000000000    1.500000000

 Bond lengths in Bohr (Angstrom)

 1-2  3.000000000
     ( 1.587531633)


 BASIS DATA

   Nr Sym  Nuc  Type         Exponents   Contraction coefficients

    1.1 Ag    1  1s        4173.511500     0.001835
              2  1s         627.457910     0.013995
                            142.902090     0.068587
                             40.234329     0.232241
                             12.820213     0.469070
                              4.390437     0.360455
    2.1 Ag    1  1s          11.626362    -0.114961
              2  1s           2.716280    -0.169117
                              0.772218     1.145852
    3.1 Ag    1  1s           0.212032     1.000000
              2  1s    
    4.1 Ag    1  2pz         11.626362     0.067580
              2 -2pz          2.716280     0.323907
                              0.772218     0.740895
    5.1 Ag    1  2pz          0.212032     1.000000
              2 -2pz   
    1.2 B3u   1  2px         11.626362     0.067580
              2  2px          2.716280     0.323907
                              0.772218     0.740895
    2.2 B3u   1  2px          0.212032     1.000000
              2  2px   
    1.3 B2u   1  2py         11.626362     0.067580
              2  2py          2.716280     0.323907
                              0.772218     0.740895
    2.3 B2u   1  2py          0.212032     1.000000
              2  2py   
    1.5 B1u   1  1s        4173.511500     0.001835
              2 -1s         627.457910     0.013995
                            142.902090     0.068587
                             40.234329     0.232241
                             12.820213     0.469070
                              4.390437     0.360455
    2.5 B1u   1  1s          11.626362    -0.114961
              2 -1s           2.716280    -0.169117
                              0.772218     1.145852
    3.5 B1u   1  1s           0.212032     1.000000
              2 -1s    
    4.5 B1u   1  2pz         11.626362     0.067580
              2  2pz          2.716280     0.323907
                              0.772218     0.740895
    5.5 B1u   1  2pz          0.212032     1.000000
              2  2pz   
    1.6 B2g   1  2px         11.626362     0.067580
              2 -2px          2.716280     0.323907
                              0.772218     0.740895
    2.6 B2g   1  2px          0.212032     1.000000
              2 -2px   
    1.7 B3g   1  2py         11.626362     0.067580
              2 -2py          2.716280     0.323907
                              0.772218     0.740895
    2.7 B3g   1  2py          0.212032     1.000000
              2 -2py   

 NUCLEAR CHARGE:                   14
 NUMBER OF PRIMITIVE AOS:          44
 NUMBER OF SYMMETRY AOS:           44
 NUMBER OF CONTRACTIONS:           18   (    5Ag  +    2B3u +    2B2u +    0B1g +    5B1u +    2B2g +    2B3g +    0Au  )
 NUMBER OF CORE ORBITALS:           2   (    1Ag  +    0B3u +    0B2u +    0B1g +    1B1u +    0B2g +    0B3g +    0Au  )
 NUMBER OF VALENCE ORBITALS:        8   (    2Ag  +    1B3u +    1B2u +    0B1g +    2B1u +    1B2g +    1B3g +    0Au  )


 NUCLEAR REPULSION ENERGY   16.33333333

 Eigenvalues of metric

         1 0.238E+00 0.415E+00 0.926E+00 0.155E+01 0.276E+01
         2 0.544E+00 0.186E+01
         3 0.544E+00 0.186E+01
         5 0.420E-01 0.342E+00 0.806E+00 0.100E+01 0.192E+01
         6 0.352E+00 0.124E+01
         7 0.352E+00 0.124E+01


 Contracted 2-electron integrals neglected if value below      1.0D-11
 AO integral compression algorithm  1   Integral accuracy      1.0D-11

     0.262 MB (compressed) written to integral file (100.0%)


 NUMBER OF SORTED TWO-ELECTRON INTEGRALS:       2829.     BUFFER LENGTH:  32768
 NUMBER OF SEGMENTS:   1  SEGMENT LENGTH:       2829      RECORD LENGTH: 524288

 Memory used in sort:       0.56 MW

 SORT1 READ        8184. AND WROTE        2829. INTEGRALS IN      1 RECORDS. CPU TIME:     0.00 SEC, REAL TIME:     0.01 SEC
 SORT2 READ        2829. AND WROTE        2829. INTEGRALS IN      1 RECORDS. CPU TIME:     0.01 SEC, REAL TIME:     0.01 SEC

 FILE SIZES:   FILE 1:    30.2 MBYTE,  FILE 4:     4.2 MBYTE,   TOTAL:     34.4 MBYTE

 OPERATOR DM      FOR CENTER  0  COORDINATES:    0.000000    0.000000    0.000000


 **********************************************************************************************************************************
 DATASETS  * FILE   NREC   LENGTH (MB)   RECORD NAMES
              1      19       29.97       500      700      610      900      950      970     1000      129      960     1100   
                                          VAR     GEOM    BASINP   SYMINP    ZMAT    AOBASIS   BASIS     P2S    ABASIS      S 
                                         1400     1410     1200     1210     1080     1600     1650     1300     1700   
                                           T        V       H0       H01     AOSYM     SMH    MOLCAS    ERIS     OPER   

              3       5       14.77       500      610      700     1000     2100   
                                          VAR    BASINP    GEOM     BASIS     RHF  

 PROGRAMS   *        TOTAL       INT   RESTART
 CPU TIMES  *         0.25      0.11      0.02
 REAL TIME  *         0.36 SEC
 DISK USED  *        49.44 MB
 **********************************************************************************************************************************


 PROGRAM * BCCD (Closed-shell Brueckner coupled-cluster)     Authors: C. Hampel, H.-J. Werner, 1991, M. Deegan, P.J. Knowles, 1992


 Input parameters for THRESH:

 ENERGY   =    1.00D-10
 COEFF    =    1.00D-12
 PRINTCI  =    0.000000
 THRPRINT =    0.000000

 Convergence thresholds:  THRVAR = 1.00D-24  THRDEN = 1.00D-10

 Number of closed-shell orbitals:   7 (   3   1   1   0   2   0   0 )
 Number of external orbitals:      11 (   2   1   1   0   3   2   2 )

 Molecular orbitals read from record     2100.3  Type=RHF/CANONICAL (state 1.1)

 Number of N-1 electron functions:               7
 Number of N-2 electron functions:              28
 Number of singly external CSFs:                14
 Number of doubly external CSFs:               493
 Total number of CSFs:                         508

 Brueckner orbitals will be computed and saved on record    2150.2

 Length of J-op  integral file:               0.00 MB
 Length of K-op  integral file:               0.04 MB

 Integral transformation finished. Total CPU:   0.00 sec, npass=  1  Memory used:   0.07 MW

 Reference energy:                   -108.56037943

 MP2 singles energy:                   -0.00000000
 MP2 singlet pair energy:              -0.25764248
 MP2 triplet pair energy:              -0.21014109
 MP2 correlation energy:               -0.46778357
 MP2 total energy:                   -109.02816300

 SCS-MP2 correlation energy:           -0.43992543   (PS=  1.200000  PT=  0.333333)
 SCS-MP2 total energy:               -109.00030486

 ITER.      SQ.NORM     CORR.ENERGY   TOTAL ENERGY   ENERGY CHANGE        DEN1      VAR(S)    VAR(P)  DIIS     TIME  TIME/IT
   1      1.13966685    -0.39471519  -108.95509463     0.07306838     0.19802859  0.19D-01  0.90D-01  1  1     0.02     0.01
   2      1.18024982    -0.37138597  -108.90537303     0.02332922    -0.07428155  0.38D-02  0.16D-01  2  2     0.02     0.01
   3      1.20456482    -0.35500245  -108.90203599     0.01638352     0.00060784  0.18D-04  0.15D-02  3  3     0.03     0.01
   4      1.26650126    -0.36087903  -108.90655896    -0.00587657    -0.01984044  0.24D-04  0.92D-03  4  4     0.03     0.01
   5      1.28672662    -0.36539174  -108.91052247    -0.00451272    -0.00311766  0.14D-05  0.81D-04  5  5     0.04     0.01
   6      1.29201455    -0.36666968  -108.91137918    -0.00127793    -0.00001925  0.19D-06  0.11D-04  6  6     0.04     0.01
   7      1.29512936    -0.36695580  -108.91166630    -0.00028613    -0.00065831  0.60D-07  0.17D-05  6  1     0.05     0.01
   8      1.29432507    -0.36700036  -108.91173287    -0.00004456     0.00012535  0.61D-08  0.19D-06  6  2     0.06     0.01
   9      1.29446032    -0.36697631  -108.91171002     0.00002405    -0.00002711  0.52D-09  0.23D-07  6  3     0.06     0.01
  10      1.29462556    -0.36698873  -108.91171765    -0.00001242    -0.00003259  0.10D-09  0.26D-08  6  1     0.07     0.01
  11      1.29459409    -0.36699387  -108.91172023    -0.00000514     0.00000394  0.95D-11  0.25D-09  6  4     0.07     0.01
  12      1.29457918    -0.36699265  -108.91171920     0.00000123     0.00000260  0.29D-11  0.46D-10  6  5     0.08     0.01
  13      1.29457926    -0.36699188  -108.91171874     0.00000077     0.00000045  0.17D-12  0.35D-11  6  6     0.08     0.01
  14      1.29458084    -0.36699191  -108.91171874    -0.00000003    -0.00000036  0.55D-13  0.79D-12  6  2     0.08     0.01
  15      1.29457994    -0.36699191  -108.91171877    -0.00000000     0.00000019  0.34D-14  0.10D-12  6  3     0.09     0.01
  16      1.29457998    -0.36699188  -108.91171875     0.00000003    -0.00000000  0.48D-16  0.53D-14  6  6     0.09     0.01
  17      1.29458001    -0.36699188  -108.91171875    -0.00000000    -0.00000001  0.14D-16  0.36D-15  6  1     0.10     0.01
  18      1.29458000    -0.36699188  -108.91171875    -0.00000000     0.00000000  0.18D-17  0.54D-16  6  4     0.10     0.01
  19      1.29457999    -0.36699188  -108.91171875     0.00000000     0.00000000  0.30D-18  0.48D-17  6  5     0.11     0.01
  20      1.29457999    -0.36699188  -108.91171875     0.00000000    -0.00000000  0.19D-19  0.18D-18  6  2     0.11     0.01
  21      1.29457999    -0.36699188  -108.91171875    -0.00000000     0.00000000  0.32D-20  0.18D-19  6  3     0.11     0.01
  22      1.29457999    -0.36699188  -108.91171875     0.00000000     0.00000000  0.29D-21  0.37D-20  6  6     0.12     0.01
  23      1.29457999    -0.36699188  -108.91171875     0.00000000     0.00000000  0.19D-22  0.82D-21  6  1     0.12     0.01
  24      1.29457999    -0.36699188  -108.91171875    -0.00000000    -0.00000000  0.59D-23  0.19D-21  6  4     0.13     0.01
  25      1.29457999    -0.36699188  -108.91171875    -0.00000000    -0.00000000  0.57D-24  0.23D-22  6  5     0.13     0.01
  26      1.29457999    -0.36699188  -108.91171875    -0.00000000     0.00000000  0.24D-24  0.28D-23  6  2     0.13     0.01
  27      1.29457999    -0.36699188  -108.91171875    -0.00000000    -0.00000000  0.36D-25  0.75D-24  6  3     0.13     0.01

 Norm of t1 vector:      0.00000000      S-energy:    -0.00000000      T1 diagnostic:  0.00000000

 Orbital rotation generators (print threshold =  0.000E+00):

         I         SYM. A    A   T(IA)

         1         1         1     -0.00046289
         1         1         2     -0.00017862
         2         1         1      0.01025404
         2         1         2     -0.00091468
         3         1         1     -0.00583748
         3         1         2     -0.02151418
         4         2         1      0.04963112
         5         3         1      0.04963112
         6         5         1      0.00011603
         6         5         2      0.00029089
         6         5         3     -0.00032973
         7         5         1      0.01919644
         7         5         2     -0.01131049
         7         5         3      0.00315254

 Doubles amplitudes (print threshold =  0.000E+00):

         I         J         SYM. A    SYM. B    A         B      T(IJ, AB)

         1         1         1         1         1         1     -0.00060823
         1         1         1         1         1         2     -0.00007392
         1         1         1         1         2         1     -0.00007392
         1         1         1         1         2         2     -0.00062020
         1         1         2         2         1         1     -0.00057302
         1         1         3         3         1         1     -0.00057302
         1         1         5         5         1         1     -0.00050395
         1         1         5         5         1         2      0.00033866
         1         1         5         5         1         3      0.00035923
         1         1         5         5         2         1      0.00033866
         1         1         5         5         2         2     -0.00057984
         1         1         5         5         2         3      0.00006518
         1         1         5         5         3         1      0.00035923
         1         1         5         5         3         2      0.00006518
         1         1         5         5         3         3     -0.00043028
         1         1         6         6         1         1     -0.00023463
         1         1         6         6         1         2      0.00045689
         1         1         6         6         2         1      0.00045689
         1         1         6         6         2         2     -0.00056322
         1         1         7         7         1         1     -0.00023463
         1         1         7         7         1         2      0.00045689
         1         1         7         7         2         1      0.00045689
         1         1         7         7         2         2     -0.00056322
         2         1         1         1         1         1      0.00003791
         2         1         1         1         1         2      0.00024570
         2         1         1         1         2         1      0.00044907
         2         1         1         1         2         2     -0.00021686
         2         1         2         2         1         1     -0.00052795
         2         1         3         3         1         1     -0.00052795
         2         1         5         5         1         1     -0.00061245
         2         1         5         5         1         2      0.00076385
         2         1         5         5         1         3      0.00006664
         2         1         5         5         2         1      0.00045380
         2         1         5         5         2         2     -0.00048124
         2         1         5         5         2         3     -0.00011773
         2         1         5         5         3         1      0.00013559
         2         1         5         5         3         2     -0.00027981
         2         1         5         5         3         3      0.00010647
         2         1         6         6         1         1     -0.00053031
         2         1         6         6         1         2      0.00078796
         2         1         6         6         2         1      0.00048058
         2         1         6         6         2         2     -0.00054757
         2         1         7         7         1         1     -0.00053031
         2         1         7         7         1         2      0.00078796
         2         1         7         7         2         1      0.00048058
         2         1         7         7         2         2     -0.00054757
         2         2         1         1         1         1     -0.00494252
         2         2         1         1         1         2     -0.00426023
         2         2         1         1         2         1     -0.00426023
         2         2         1         1         2         2     -0.01052221
         2         2         2         2         1         1     -0.00591332
         2         2         3         3         1         1     -0.00591332
         2         2         5         5         1         1     -0.03102600
         2         2         5         5         1         2      0.00747747
         2         2         5         5         1         3      0.01031469
         2         2         5         5         2         1      0.00747747
         2         2         5         5         2         2     -0.00428309
         2         2         5         5         2         3     -0.00185729
         2         2         5         5         3         1      0.01031469
         2         2         5         5         3         2     -0.00185729
         2         2         5         5         3         3     -0.00696041
         2         2         6         6         1         1     -0.01442288
         2         2         6         6         1         2      0.00743218
         2         2         6         6         2         1      0.00743218
         2         2         6         6         2         2     -0.00489861
         2         2         7         7         1         1     -0.01442288
         2         2         7         7         1         2      0.00743218
         2         2         7         7         2         1      0.00743218
         2         2         7         7         2         2     -0.00489861
         3         1         1         1         1         1      0.00010816
         3         1         1         1         1         2     -0.00047517
         3         1         1         1         2         1      0.00029706
         3         1         1         1         2         2     -0.00011441
         3         1         2         2         1         1      0.00018867
         3         1         3         3         1         1      0.00018867
         3         1         5         5         1         1     -0.00005526
         3         1         5         5         1         2     -0.00006109
         3         1         5         5         1         3      0.00001888
         3         1         5         5         2         1     -0.00038446
         3         1         5         5         2         2      0.00023415
         3         1         5         5         2         3      0.00020634
         3         1         5         5         3         1      0.00057150
         3         1         5         5         3         2     -0.00052504
         3         1         5         5         3         3     -0.00009883
         3         1         6         6         1         1      0.00015661
         3         1         6         6         1         2     -0.00025414
         3         1         6         6         2         1     -0.00006811
         3         1         6         6         2         2      0.00010475
         3         1         7         7         1         1      0.00015661
         3         1         7         7         1         2     -0.00025414
         3         1         7         7         2         1     -0.00006811
         3         1         7         7         2         2      0.00010475
         3         2         1         1         1         1      0.01016965
         3         2         1         1         1         2      0.00362798
         3         2         1         1         2         1     -0.00431061
         3         2         1         1         2         2     -0.00746953
         3         2         2         2         1         1      0.00216734
         3         2         3         3         1         1      0.00216734
         3         2         5         5         1         1     -0.03056967
         3         2         5         5         1         2      0.00588388
         3         2         5         5         1         3      0.01178214
         3         2         5         5         2         1      0.01400980
         3         2         5         5         2         2      0.00325459
         3         2         5         5         2         3     -0.00930452
         3         2         5         5         3         1      0.01076451
         3         2         5         5         3         2     -0.00517084
         3         2         5         5         3         3     -0.00095871
         3         2         6         6         1         1      0.00706970
         3         2         6         6         1         2     -0.00102735
         3         2         6         6         2         1      0.00085739
         3         2         6         6         2         2      0.00089736
         3         2         7         7         1         1      0.00706970
         3         2         7         7         1         2     -0.00102735
         3         2         7         7         2         1      0.00085739
         3         2         7         7         2         2      0.00089736
         3         3         1         1         1         1     -0.02165621
         3         3         1         1         1         2      0.00716268
         3         3         1         1         2         1      0.00716268
         3         3         1         1         2         2     -0.00512354
         3         3         2         2         1         1     -0.00240497
         3         3         3         3         1         1     -0.00240497
         3         3         5         5         1         1     -0.09045411
         3         3         5         5         1         2      0.03008192
         3         3         5         5         1         3     -0.00227703
         3         3         5         5         2         1      0.03008192
         3         3         5         5         2         2     -0.02869712
         3         3         5         5         2         3      0.00358364
         3         3         5         5         3         1     -0.00227703
         3         3         5         5         3         2      0.00358364
         3         3         5         5         3         3     -0.00351655
         3         3         6         6         1         1     -0.02440413
         3         3         6         6         1         2      0.00283636
         3         3         6         6         2         1      0.00283636
         3         3         6         6         2         2     -0.00219820
         3         3         7         7         1         1     -0.02440413
         3         3         7         7         1         2      0.00283636
         3         3         7         7         2         1      0.00283636
         3         3         7         7         2         2     -0.00219820
         4         4         1         1         1         1     -0.00463967
         4         4         1         1         1         2     -0.00355387
         4         4         1         1         2         1     -0.00355387
         4         4         1         1         2         2     -0.00630958
         4         4         2         2         1         1     -0.01801255
         4         4         3         3         1         1     -0.00118256
         4         4         5         5         1         1     -0.01866314
         4         4         5         5         1         2      0.00178391
         4         4         5         5         1         3      0.00145261
         4         4         5         5         2         1      0.00178391
         4         4         5         5         2         2     -0.00182908
         4         4         5         5         2         3      0.00107547
         4         4         5         5         3         1      0.00145261
         4         4         5         5         3         2      0.00107547
         4         4         5         5         3         3     -0.00346020
         4         4         6         6         1         1     -0.26393486
         4         4         6         6         1         2      0.03628167
         4         4         6         6         2         1      0.03628167
         4         4         6         6         2         2     -0.01358245
         4         4         7         7         1         1     -0.02470205
         4         4         7         7         1         2      0.00292291
         4         4         7         7         2         1      0.00292291
         4         4         7         7         2         2     -0.00085856
         5         5         1         1         1         1     -0.00463967
         5         5         1         1         1         2     -0.00355387
         5         5         1         1         2         1     -0.00355387
         5         5         1         1         2         2     -0.00630958
         5         5         2         2         1         1     -0.00118256
         5         5         3         3         1         1     -0.01801255
         5         5         5         5         1         1     -0.01866314
         5         5         5         5         1         2      0.00178391
         5         5         5         5         1         3      0.00145261
         5         5         5         5         2         1      0.00178391
         5         5         5         5         2         2     -0.00182908
         5         5         5         5         2         3      0.00107547
         5         5         5         5         3         1      0.00145261
         5         5         5         5         3         2      0.00107547
         5         5         5         5         3         3     -0.00346020
         5         5         6         6         1         1     -0.02470205
         5         5         6         6         1         2      0.00292291
         5         5         6         6         2         1      0.00292291
         5         5         6         6         2         2     -0.00085856
         5         5         7         7         1         1     -0.26393486
         5         5         7         7         1         2      0.03628167
         5         5         7         7         2         1      0.03628167
         5         5         7         7         2         2     -0.01358245
         6         6         1         1         1         1     -0.00060532
         6         6         1         1         1         2     -0.00007942
         6         6         1         1         2         1     -0.00007942
         6         6         1         1         2         2     -0.00061400
         6         6         2         2         1         1     -0.00056708
         6         6         3         3         1         1     -0.00056708
         6         6         5         5         1         1     -0.00051540
         6         6         5         5         1         2      0.00035015
         6         6         5         5         1         3      0.00036070
         6         6         5         5         2         1      0.00035015
         6         6         5         5         2         2     -0.00059106
         6         6         5         5         2         3      0.00006294
         6         6         5         5         3         1      0.00036070
         6         6         5         5         3         2      0.00006294
         6         6         5         5         3         3     -0.00043017
         6         6         6         6         1         1     -0.00024165
         6         6         6         6         1         2      0.00046259
         6         6         6         6         2         1      0.00046259
         6         6         6         6         2         2     -0.00056911
         6         6         7         7         1         1     -0.00024165
         6         6         7         7         1         2      0.00046259
         6         6         7         7         2         1      0.00046259
         6         6         7         7         2         2     -0.00056911
         7         6         1         1         1         1     -0.00008308
         7         6         1         1         1         2      0.00047015
         7         6         1         1         2         1      0.00026502
         7         6         1         1         2         2     -0.00015342
         7         6         2         2         1         1     -0.00062239
         7         6         3         3         1         1     -0.00062239
         7         6         5         5         1         1     -0.00066486
         7         6         5         5         1         2      0.00086727
         7         6         5         5         1         3      0.00006728
         7         6         5         5         2         1      0.00063209
         7         6         5         5         2         2     -0.00056213
         7         6         5         5         2         3     -0.00021996
         7         6         5         5         3         1     -0.00011796
         7         6         5         5         3         2     -0.00007479
         7         6         5         5         3         3      0.00016699
         7         6         6         6         1         1     -0.00066446
         7         6         6         6         1         2      0.00093881
         7         6         6         6         2         1      0.00049917
         7         6         6         6         2         2     -0.00058065
         7         6         7         7         1         1     -0.00066446
         7         6         7         7         1         2      0.00093881
         7         6         7         7         2         1      0.00049917
         7         6         7         7         2         2     -0.00058065
         7         7         1         1         1         1     -0.01527804
         7         7         1         1         1         2     -0.00195610
         7         7         1         1         2         1     -0.00195610
         7         7         1         1         2         2     -0.00293216
         7         7         2         2         1         1     -0.00670313
         7         7         3         3         1         1     -0.00670313
         7         7         5         5         1         1     -0.02979793
         7         7         5         5         1         2      0.00638398
         7         7         5         5         1         3      0.00160006
         7         7         5         5         2         1      0.00638398
         7         7         5         5         2         2     -0.01288796
         7         7         5         5         2         3      0.00587770
         7         7         5         5         3         1      0.00160006
         7         7         5         5         3         2      0.00587770
         7         7         5         5         3         3     -0.00695220
         7         7         6         6         1         1     -0.04705123
         7         7         6         6         1         2      0.01096103
         7         7         6         6         2         1      0.01096103
         7         7         6         6         2         2     -0.00603279
         7         7         7         7         1         1     -0.04705123
         7         7         7         7         1         2      0.01096103
         7         7         7         7         2         1      0.01096103
         7         7         7         7         2         2     -0.00603279
         4         1         1         2         1         1      0.00040187
         4         1         1         2         2         1      0.00024560
         4         1         2         1         1         1     -0.00021012
         4         1         2         1         1         2     -0.00013607
         4         1         5         6         1         1     -0.00048724
         4         1         5         6         1         2      0.00035496
         4         1         5         6         2         1     -0.00023912
         4         1         5         6         2         2      0.00018642
         4         1         5         6         3         1      0.00045406
         4         1         5         6         3         2     -0.00034900
         4         1         6         5         1         1     -0.00004532
         4         1         6         5         1         2     -0.00014975
         4         1         6         5         1         3      0.00008601
         4         1         6         5         2         1     -0.00006222
         4         1         6         5         2         2     -0.00008632
         4         1         6         5         2         3      0.00016103
         4         2         1         2         1         1      0.00570657
         4         2         1         2         2         1      0.00500918
         4         2         2         1         1         1      0.01120695
         4         2         2         1         1         2      0.01184951
         4         2         5         6         1         1     -0.03212786
         4         2         5         6         1         2      0.00867553
         4         2         5         6         2         1     -0.00202681
         4         2         5         6         2         2      0.00180350
         4         2         5         6         3         1      0.00299705
         4         2         5         6         3         2     -0.00403355
         4         2         6         5         1         1     -0.03149570
         4         2         6         5         1         2     -0.00069794
         4         2         6         5         1         3      0.00721798
         4         2         6         5         2         1      0.01486083
         4         2         6         5         2         2      0.00121633
         4         2         6         5         2         3     -0.00882149
         4         3         1         2         1         1     -0.00406038
         4         3         1         2         2         1      0.00000743
         4         3         2         1         1         1     -0.01517713
         4         3         2         1         1         2      0.00722829
         4         3         5         6         1         1     -0.03614834
         4         3         5         6         1         2      0.00589122
         4         3         5         6         2         1      0.01621033
         4         3         5         6         2         2     -0.00510406
         4         3         5         6         3         1      0.00213596
         4         3         5         6         3         2      0.00193539
         4         3         6         5         1         1     -0.06786122
         4         3         6         5         1         2      0.02543262
         4         3         6         5         1         3      0.00028325
         4         3         6         5         2         1      0.01556302
         4         3         6         5         2         2     -0.01544452
         4         3         6         5         2         3      0.00149042
         5         1         1         3         1         1      0.00040187
         5         1         1         3         2         1      0.00024560
         5         1         3         1         1         1     -0.00021012
         5         1         3         1         1         2     -0.00013607
         5         1         5         7         1         1     -0.00048724
         5         1         5         7         1         2      0.00035496
         5         1         5         7         2         1     -0.00023912
         5         1         5         7         2         2      0.00018642
         5         1         5         7         3         1      0.00045406
         5         1         5         7         3         2     -0.00034900
         5         1         7         5         1         1     -0.00004532
         5         1         7         5         1         2     -0.00014975
         5         1         7         5         1         3      0.00008601
         5         1         7         5         2         1     -0.00006222
         5         1         7         5         2         2     -0.00008632
         5         1         7         5         2         3      0.00016103
         5         2         1         3         1         1      0.00570657
         5         2         1         3         2         1      0.00500918
         5         2         3         1         1         1      0.01120695
         5         2         3         1         1         2      0.01184951
         5         2         5         7         1         1     -0.03212786
         5         2         5         7         1         2      0.00867553
         5         2         5         7         2         1     -0.00202681
         5         2         5         7         2         2      0.00180350
         5         2         5         7         3         1      0.00299705
         5         2         5         7         3         2     -0.00403355
         5         2         7         5         1         1     -0.03149570
         5         2         7         5         1         2     -0.00069794
         5         2         7         5         1         3      0.00721798
         5         2         7         5         2         1      0.01486083
         5         2         7         5         2         2      0.00121633
         5         2         7         5         2         3     -0.00882149
         5         3         1         3         1         1     -0.00406038
         5         3         1         3         2         1      0.00000743
         5         3         3         1         1         1     -0.01517713
         5         3         3         1         1         2      0.00722829
         5         3         5         7         1         1     -0.03614834
         5         3         5         7         1         2      0.00589122
         5         3         5         7         2         1      0.01621033
         5         3         5         7         2         2     -0.00510406
         5         3         5         7         3         1      0.00213596
         5         3         5         7         3         2      0.00193539
         5         3         7         5         1         1     -0.06786122
         5         3         7         5         1         2      0.02543262
         5         3         7         5         1         3      0.00028325
         5         3         7         5         2         1      0.01556302
         5         3         7         5         2         2     -0.01544452
         5         3         7         5         2         3      0.00149042
         5         4         2         3         1         1     -0.00065964
         5         4         3         2         1         1     -0.01617034
         5         4         6         7         1         1     -0.11821750
         5         4         6         7         1         2      0.01355955
         5         4         6         7         2         1      0.01355955
         5         4         6         7         2         2     -0.00171132
         5         4         7         6         1         1     -0.12101531
         5         4         7         6         1         2      0.01979920
         5         4         7         6         2         1      0.01979920
         5         4         7         6         2         2     -0.01101257
         6         1         1         5         1         1     -0.00000678
         6         1         1         5         1         2      0.00048249
         6         1         1         5         1         3     -0.00035741
         6         1         1         5         2         1      0.00060139
         6         1         1         5         2         2     -0.00029539
         6         1         1         5         2         3     -0.00041757
         6         1         2         6         1         1     -0.00047044
         6         1         2         6         1         2      0.00057132
         6         1         3         7         1         1     -0.00047044
         6         1         3         7         1         2      0.00057132
         6         1         5         1         1         1     -0.00001264
         6         1         5         1         1         2      0.00061036
         6         1         5         1         2         1      0.00048914
         6         1         5         1         2         2     -0.00030402
         6         1         5         1         3         1     -0.00035684
         6         1         5         1         3         2     -0.00041966
         6         1         6         2         1         1     -0.00047609
         6         1         6         2         2         1      0.00057730
         6         1         7         3         1         1     -0.00047609
         6         1         7         3         2         1      0.00057730
         6         2         1         5         1         1     -0.00052521
         6         2         1         5         1         2      0.00028131
         6         2         1         5         1         3      0.00027917
         6         2         1         5         2         1      0.00052937
         6         2         1         5         2         2     -0.00041782
         6         2         1         5         2         3     -0.00004010
         6         2         2         6         1         1     -0.00083120
         6         2         2         6         1         2      0.00056292
         6         2         3         7         1         1     -0.00083120
         6         2         3         7         1         2      0.00056292
         6         2         5         1         1         1     -0.00021314
         6         2         5         1         1         2      0.00036246
         6         2         5         1         2         1      0.00012473
         6         2         5         1         2         2     -0.00053877
         6         2         5         1         3         1      0.00015669
         6         2         5         1         3         2      0.00007344
         6         2         6         2         1         1     -0.00049405
         6         2         6         2         2         1      0.00053677
         6         2         7         3         1         1     -0.00049405
         6         2         7         3         2         1      0.00053677
         6         3         1         5         1         1      0.00008435
         6         3         1         5         1         2     -0.00002192
         6         3         1         5         1         3      0.00029058
         6         3         1         5         2         1     -0.00007976
         6         3         1         5         2         2      0.00037667
         6         3         1         5         2         3     -0.00038807
         6         3         2         6         1         1      0.00027899
         6         3         2         6         1         2     -0.00011855
         6         3         3         7         1         1      0.00027899
         6         3         3         7         1         2     -0.00011855
         6         3         5         1         1         1      0.00060512
         6         3         5         1         1         2      0.00023741
         6         3         5         1         2         1     -0.00041639
         6         3         5         1         2         2     -0.00034896
         6         3         5         1         3         1     -0.00023562
         6         3         5         1         3         2      0.00007462
         6         3         6         2         1         1      0.00015387
         6         3         6         2         2         1     -0.00018142
         6         3         7         3         1         1      0.00015387
         6         3         7         3         2         1     -0.00018142
         7         1         1         5         1         1     -0.00050818
         7         1         1         5         1         2      0.00035499
         7         1         1         5         1         3      0.00024358
         7         1         1         5         2         1      0.00022927
         7         1         1         5         2         2     -0.00034293
         7         1         1         5         2         3      0.00003083
         7         1         2         6         1         1     -0.00057068
         7         1         2         6         1         2      0.00063098
         7         1         3         7         1         1     -0.00057068
         7         1         3         7         1         2      0.00063098
         7         1         5         1         1         1     -0.00057830
         7         1         5         1         1         2      0.00063365
         7         1         5         1         2         1      0.00026689
         7         1         5         1         2         2     -0.00057741
         7         1         5         1         3         1      0.00015851
         7         1         5         1         3         2      0.00010584
         7         1         6         2         1         1     -0.00098971
         7         1         6         2         2         1      0.00060605
         7         1         7         3         1         1     -0.00098971
         7         1         7         3         2         1      0.00060605
         7         2         1         5         1         1      0.00485344
         7         2         1         5         1         2      0.00442694
         7         2         1         5         1         3     -0.00635824
         7         2         1         5         2         1      0.00939989
         7         2         1         5         2         2     -0.00260628
         7         2         1         5         2         3     -0.00451528
         7         2         2         6         1         1     -0.01202914
         7         2         2         6         1         2      0.00620796
         7         2         3         7         1         1     -0.01202914
         7         2         3         7         1         2      0.00620796
         7         2         5         1         1         1      0.00211946
         7         2         5         1         1         2      0.00874390
         7         2         5         1         2         1      0.00700247
         7         2         5         1         2         2      0.00042157
         7         2         5         1         3         1     -0.00590474
         7         2         5         1         3         2     -0.00721708
         7         2         6         2         1         1     -0.00950996
         7         2         6         2         2         1      0.00608202
         7         2         7         3         1         1     -0.00950996
         7         2         7         3         2         1      0.00608202
         7         3         1         5         1         1      0.01518235
         7         3         1         5         1         2     -0.02021740
         7         3         1         5         1         3      0.00412797
         7         3         1         5         2         1      0.00819352
         7         3         1         5         2         2     -0.00302314
         7         3         1         5         2         3     -0.00219102
         7         3         2         6         1         1      0.00679493
         7         3         2         6         1         2     -0.00269016
         7         3         3         7         1         1      0.00679493
         7         3         3         7         1         2     -0.00269016
         7         3         5         1         1         1      0.00394034
         7         3         5         1         1         2      0.00904570
         7         3         5         1         2         1     -0.01759605
         7         3         5         1         2         2      0.00251188
         7         3         5         1         3         1      0.00894062
         7         3         5         1         3         2     -0.00597157
         7         3         6         2         1         1      0.00672461
         7         3         6         2         2         1     -0.00299301
         7         3         7         3         1         1      0.00672461
         7         3         7         3         2         1     -0.00299301
         6         4         1         6         1         1      0.00019862
         6         4         1         6         1         2      0.00017178
         6         4         1         6         2         1      0.00002213
         6         4         1         6         2         2      0.00011365
         6         4         2         5         1         1     -0.00032308
         6         4         2         5         1         2     -0.00018367
         6         4         2         5         1         3      0.00032916
         6         4         5         2         1         1      0.00012259
         6         4         5         2         2         1      0.00008850
         6         4         5         2         3         1     -0.00020267
         6         4         6         1         1         1      0.00055396
         6         4         6         1         1         2      0.00036367
         6         4         6         1         2         1     -0.00041702
         6         4         6         1         2         2     -0.00026333
         7         4         1         6         1         1      0.01855007
         7         4         1         6         1         2     -0.01393508
         7         4         1         6         2         1      0.00931125
         7         4         1         6         2         2     -0.00599089
         7         4         2         5         1         1     -0.00504853
         7         4         2         5         1         2     -0.00364558
         7         4         2         5         1         3      0.00457527
         7         4         5         2         1         1     -0.00611656
         7         4         5         2         2         1     -0.01066829
         7         4         5         2         3         1      0.01210265
         7         4         6         1         1         1      0.01336040
         7         4         6         1         1         2      0.00274832
         7         4         6         1         2         1     -0.00763169
         7         4         6         1         2         2     -0.00392785
         6         5         1         7         1         1      0.00019862
         6         5         1         7         1         2      0.00017178
         6         5         1         7         2         1      0.00002213
         6         5         1         7         2         2      0.00011365
         6         5         3         5         1         1     -0.00032308
         6         5         3         5         1         2     -0.00018367
         6         5         3         5         1         3      0.00032916
         6         5         5         3         1         1      0.00012259
         6         5         5         3         2         1      0.00008850
         6         5         5         3         3         1     -0.00020267
         6         5         7         1         1         1      0.00055396
         6         5         7         1         1         2      0.00036367
         6         5         7         1         2         1     -0.00041702
         6         5         7         1         2         2     -0.00026333
         7         5         1         7         1         1      0.01855007
         7         5         1         7         1         2     -0.01393508
         7         5         1         7         2         1      0.00931125
         7         5         1         7         2         2     -0.00599089
         7         5         3         5         1         1     -0.00504853
         7         5         3         5         1         2     -0.00364558
         7         5         3         5         1         3      0.00457527
         7         5         5         3         1         1     -0.00611656
         7         5         5         3         2         1     -0.01066829
         7         5         5         3         3         1      0.01210265
         7         5         7         1         1         1      0.01336040
         7         5         7         1         1         2      0.00274832
         7         5         7         1         2         1     -0.00763169
         7         5         7         1         2         2     -0.00392785


 RESULTS
 =======

  Reference energy                   -108.544726870825

  Correlated core orbitals:             1.1       1.5
  Orbital energies:                   -15.7309  -15.7303

  BCCD core-core energy                -0.000603010027
  BCCD core-valence energy             -0.001455413897
  BCCD valence correlation energy      -0.364933453860

  BCCD singlet pair energy             -0.306779189933
  BCCD triplet pair energy             -0.060212687850
  BCCD correlation energy              -0.366991877784

 !BCCD total energy                  -108.911718748609

 Approximate expectation values using Brueckner orbitals

 !BCCD(ref) STATE  1.1 Dipole momen     0.00000000     0.00000000     0.00000000
 Dipole moment /Debye                   0.00000000     0.00000000     0.00000000

 Brueckner orbitals saved on record           2150.2 (orbital set 1)
 Brueckner density (ref) saved on record      2150.2 (density set 1)

 Brueckner orbitals
 ==================

   Orb     Occ           Coefficients

                         1 1s      1 1s      1 1s      1 2pz     1 2pz  

   1.1    2.0000000    0.996349  0.020021 -0.004525  0.001738 -0.000700

   2.1    2.0000000   -0.212696  0.482903  0.437388  0.168071  0.054922

   3.1    2.0000000    0.061093 -0.125131 -0.296776  0.657676  0.361522

                         1 2px     1 2px  

   1.2    2.0000000    0.638936  0.420375

                         1 2py     1 2py  

   1.3    2.0000000    0.638936  0.420375

                         1 1s      1 1s      1 1s      1 2pz     1 2pz  

   1.5    2.0000000    0.996479  0.020770 -0.010225  0.001469 -0.003985

   2.5    2.0000000   -0.229586  0.544043  0.650597 -0.125958 -0.025125

 Timing summary (sec):

 STEP                 CPU(USER)    SYS     CPU(TOT)    WALL
 Transformation          0.02      0.02      0.04      0.07
 CCSD iterations         0.14      0.05      0.19      0.16

 Program statistics:

 Available memory in ccsd:                39999004
 Min. memory needed in ccsd:                  3850
 Max. memory used in ccsd:                    4069
 Max. memory used in cckext:                 37435 (27 integral passes)



 **********************************************************************************************************************************
 DATASETS  * FILE   NREC   LENGTH (MB)   RECORD NAMES
              1      20       30.00       500      700      610      900      950      970     1000      129      960     1100   
                                          VAR     GEOM    BASINP   SYMINP    ZMAT    AOBASIS   BASIS     P2S    ABASIS      S 
                                         1400     1410     1200     1210     1080     1600     1650     1300     1700     1380   
                                           T        V       H0       H01     AOSYM     SMH    MOLCAS    ERIS     OPER     JKOP   

              2       4        2.74       700     1000      520     2150   
                                         GEOM     BASIS   MCVARS    BCCD   

              3       5       14.77       500      610      700     1000     2100   
                                          VAR    BASINP    GEOM     BASIS     RHF  

 PROGRAMS   *        TOTAL      BCCD       INT   RESTART
 CPU TIMES  *         0.48      0.24      0.11      0.02
 REAL TIME  *         0.66 SEC
 DISK USED  *        49.44 MB
 **********************************************************************************************************************************

 Dump information in style XML to orbitals.xml                                                                    

 Variables will not be exported.
 Molecular orbitals read from record     2150.2  Type=BCCD/BRUECKNER (state 1.1)
 Occupation numbers read from record     2150.2  Type=BCCD/BRUECKNER (state 1.1)

 No orbital energies found for orbital set 0

 No redundancy group numbers found for orbital set 0

 **********************************************************************************************************************************

 BCCD/6-31G energy=   -108.911718748609

            BCCD
   -108.91171875
 **********************************************************************************************************************************
 Molpro calculation terminated
