
 Primary working directories    : /scr/yuriaoto/job.023584/molpro.NKQcNIhz8d
 Secondary working directories  : /scr/yuriaoto/job.023584/molpro.NKQcNIhz8d
 Wavefunction directory         : /scr/yuriaoto/job.023584/
 Main file repository           : /scr/yuriaoto/job.023584/molpro.NKQcNIhz8d/

 id        : yuriaoto

 Nodes             nprocs
 t-rex.ufabc.int.br    1

 Using customized tuning parameters: mindgm=8; mindgv=16; mindgc=1; mindgr=1; noblas=0; minvec=7
 default implementation of scratch files=df  


 Variables initialized (933), CPU time= 0.00 sec
 ***,
 memory,40,m
 gprint,orbital,basis,civector
 gthresh,printci=0.0,thrprint=0
 file,3,wfu.dat,old
 
 {bccd,SAVEORB=2150.2,print,CC_NORM_MAX=10.0
 thresh,printci=0.0,ENERGY=1.0E-10,COEFF=1.0E-12
 print,ref=1
 wf,14,1,0;
 }
 
 {put,xml,orbitals.xml; orbital,2150.2; nosort; novariables}
 
 Commands  initialized (760), CPU time= 0.01 sec, 617 directives.
 Default parameters read. Elapsed time= 0.04 sec

 Checking input...
 Passed
1


                                         ***  PROGRAM SYSTEM MOLPRO  ***
                                       Copyright, TTI GmbH Stuttgart, 2015
                                    Version 2019.2 linked Abr  7 2019 15:10:35


 **********************************************************************************************************************************
 LABEL *                                                                                 
  64 bit serial version                                                                  DATE: 05-Jun-20          TIME: 21:21:29  
 **********************************************************************************************************************************

 SHA1:             3a8a58c585c929645742fb5a1b7541a4ad1da699
 **********************************************************************************************************************************


 THRESHOLDS:

 ZERO    =  1.00D-12  ONEINT  =  1.00D-12  TWOINT  =  1.00D-11  PREFAC  =  1.00D-14  XXXXXX  =  1.00D-09  EORDER  =  1.00D-04
 ENERGY  =  0.00D+00  ETEST   =  0.00D+00  EDENS   =  0.00D+00  THRDEDEF=  1.00D-06  GRADIENT=  1.00D-02  STEP    =  1.00D-03
 ORBITAL =  1.00D-05  CIVEC   =  1.00D-05  COEFF   =  1.00D-04  PRINTCI =  0.00D+00  PUNCHCI =  9.90D+01  OPTGRAD =  3.00D-04
 OPTENERG=  1.00D-06  OPTSTEP =  3.00D-04  THRGRAD =  1.00D-10  COMPRESS=  1.00D-11  VARMIN  =  1.00D-07  VARMAX  =  1.00D-03
 THRDOUB =  0.00D+00  THRDIV  =  1.00D-05  THRRED  =  1.00D-07  THRPSP  =  1.00D+00  THRDC   =  1.00D-10  THRCS   =  1.00D-10
 THRNRM  =  1.00D-08  THREQ   =  0.00D+00  THRDE   =  1.00D+00  THRREF  =  1.00D-05  SPARFAC =  1.00D+00  THRDLP  =  1.00D-07
 THRDIA  =  1.00D-10  THRDLS  =  1.00D-07  THRGPS  =  0.00D+00  THRKEX  =  0.00D+00  THRDIS  =  2.00D-01  THRVAR  =  1.00D-10
 THRLOC  =  1.00D-06  THRGAP  =  1.00D-06  THRLOCT = -1.00D+00  THRGAPT = -1.00D+00  THRORB  =  1.00D-06  THRMLTP =  0.00D+00
 THRCPQCI=  1.00D-10  KEXTA   =  0.00D+00  THRCOARS=  0.00D+00  SYMTOL  =  1.00D-06  GRADTOL =  1.00D-06  THROVL  =  1.00D-08
 THRORTH =  1.00D-08  GRID    =  1.00D-06  GRIDMAX =  1.00D-03  DTMAX   =  0.00D+00  THROCCDE=  1.00D-01  THROCCDE=  1.00D-01
 THRPRINT=  0.00D+00


 Variable memory set to   40000000 words,  buffer space 



 Permanent file  3  wfu.dat  assigned.  Implementation=df    Size= 14.08 MB


 PROGRAM * RESTART 


 Reading variables from file 3

 _FNUC           =      0.00000000
 _BASIS          =    6-31G
 _NELEC          =     14.00000000
 _PROGRAM        =    RHF-SCF
 _DMX_SCF        =      0.00000000
 _DMY_SCF        =      0.00000000
 _DMZ_SCF        =      0.00000000
 _HOMO           =      1.20000000
 _EHOMO          =     -0.47733994
 _LUMO           =      1.60000000
 _ELUMO          =     -0.02720870
 _ENERGY         =   -108.56037943
 _ENERGY_METHOD  =    RHF
 _ENERGY_BASIS   =    6-31G
 _ENUC           =     16.33333333
 _EPS1(1:5)      =    -15.81771777    -1.22408989    -0.55476884     0.90356566     1.08163906
 _EPS2(1:2)      =     -0.47733994     0.86881343
 _EPS3(1:2)      =     -0.47733994     0.86881343
 _EPS5(1:5)      =    -15.81713369    -0.91208671     0.20403463     0.84931301     1.30241938
 _EPS6(1:2)      =     -0.02720870     0.95746624
 _EPS7(1:2)      =     -0.02720870     0.95746624
 _IPROC_MPP      =      0.00000000
 _IPROC_MPPX     =      0.00000000
 _ORBITAL        =   2100.30000000
 _STATUS         =      1.00000000
 _DATE           =    20-Mar-20
 _LASTORB        =    RHF
 _OUTPUT         =    /scr/yuriaoto/job.022805/RHF.xml
 _PGROUP         =    D2h 
 _TIME           =    18:50:32
 R               =      3.00000000

 Geometry written to block  1 of record 700


 **********************************************************************************************************************************
 DATASETS  * FILE   NREC   LENGTH (MB)   RECORD NAMES
              3       5       14.77       500      610      700     1000     2100   
                                          VAR    BASINP    GEOM     BASIS     RHF  

 PROGRAMS   *        TOTAL   RESTART
 CPU TIMES  *         0.12      0.02
 REAL TIME  *         0.15 SEC
 DISK USED  *        26.84 MB
 **********************************************************************************************************************************


 Recomputing integrals since basis changed


 Using spherical harmonics

 Library entry N      S 6-31G                selected for orbital group  1
 Library entry N      P 6-31G                selected for orbital group  1


 PROGRAM * SEWARD (Integral evaluation for generally contracted gaussian basis sets)     Author: Roland Lindh, 1990

 Geometry written to block  1 of record 700

 Orientation using atomic masses  
 Molecule type: Linear
 User-specified symmetry elements: X,Y,Z
 Symmetry elements: X,Y,Z
 Rotational constants:      28.6329822     28.6329822      0.0000000 GHz  (calculated with average atomic masses)

 Point group  D2h 



 ATOMIC COORDINATES

 NR  ATOM    CHARGE       X              Y              Z

   1  N1      7.00    0.000000000    0.000000000   -1.500000000
   2  N2      7.00    0.000000000    0.000000000    1.500000000

 Bond lengths in Bohr (Angstrom)

 1-2  3.000000000
     ( 1.587531633)


 BASIS DATA

   Nr Sym  Nuc  Type         Exponents   Contraction coefficients

    1.1 Ag    1  1s        4173.511500     0.001835
              2  1s         627.457910     0.013995
                            142.902090     0.068587
                             40.234329     0.232241
                             12.820213     0.469070
                              4.390437     0.360455
    2.1 Ag    1  1s          11.626362    -0.114961
              2  1s           2.716280    -0.169117
                              0.772218     1.145852
    3.1 Ag    1  1s           0.212032     1.000000
              2  1s    
    4.1 Ag    1  2pz         11.626362     0.067580
              2 -2pz          2.716280     0.323907
                              0.772218     0.740895
    5.1 Ag    1  2pz          0.212032     1.000000
              2 -2pz   
    1.2 B3u   1  2px         11.626362     0.067580
              2  2px          2.716280     0.323907
                              0.772218     0.740895
    2.2 B3u   1  2px          0.212032     1.000000
              2  2px   
    1.3 B2u   1  2py         11.626362     0.067580
              2  2py          2.716280     0.323907
                              0.772218     0.740895
    2.3 B2u   1  2py          0.212032     1.000000
              2  2py   
    1.5 B1u   1  1s        4173.511500     0.001835
              2 -1s         627.457910     0.013995
                            142.902090     0.068587
                             40.234329     0.232241
                             12.820213     0.469070
                              4.390437     0.360455
    2.5 B1u   1  1s          11.626362    -0.114961
              2 -1s           2.716280    -0.169117
                              0.772218     1.145852
    3.5 B1u   1  1s           0.212032     1.000000
              2 -1s    
    4.5 B1u   1  2pz         11.626362     0.067580
              2  2pz          2.716280     0.323907
                              0.772218     0.740895
    5.5 B1u   1  2pz          0.212032     1.000000
              2  2pz   
    1.6 B2g   1  2px         11.626362     0.067580
              2 -2px          2.716280     0.323907
                              0.772218     0.740895
    2.6 B2g   1  2px          0.212032     1.000000
              2 -2px   
    1.7 B3g   1  2py         11.626362     0.067580
              2 -2py          2.716280     0.323907
                              0.772218     0.740895
    2.7 B3g   1  2py          0.212032     1.000000
              2 -2py   

 NUCLEAR CHARGE:                   14
 NUMBER OF PRIMITIVE AOS:          44
 NUMBER OF SYMMETRY AOS:           44
 NUMBER OF CONTRACTIONS:           18   (    5Ag  +    2B3u +    2B2u +    0B1g +    5B1u +    2B2g +    2B3g +    0Au  )
 NUMBER OF CORE ORBITALS:           2   (    1Ag  +    0B3u +    0B2u +    0B1g +    1B1u +    0B2g +    0B3g +    0Au  )
 NUMBER OF VALENCE ORBITALS:        8   (    2Ag  +    1B3u +    1B2u +    0B1g +    2B1u +    1B2g +    1B3g +    0Au  )


 NUCLEAR REPULSION ENERGY   16.33333333

 Eigenvalues of metric

         1 0.238E+00 0.415E+00 0.926E+00 0.155E+01 0.276E+01
         2 0.544E+00 0.186E+01
         3 0.544E+00 0.186E+01
         5 0.420E-01 0.342E+00 0.806E+00 0.100E+01 0.192E+01
         6 0.352E+00 0.124E+01
         7 0.352E+00 0.124E+01


 Contracted 2-electron integrals neglected if value below      1.0D-11
 AO integral compression algorithm  1   Integral accuracy      1.0D-11

     0.262 MB (compressed) written to integral file (100.0%)


 NUMBER OF SORTED TWO-ELECTRON INTEGRALS:       2829.     BUFFER LENGTH:  32768
 NUMBER OF SEGMENTS:   1  SEGMENT LENGTH:       2829      RECORD LENGTH: 524288

 Memory used in sort:       0.56 MW

 SORT1 READ        8184. AND WROTE        2829. INTEGRALS IN      1 RECORDS. CPU TIME:     0.00 SEC, REAL TIME:     0.00 SEC
 SORT2 READ        2829. AND WROTE        2829. INTEGRALS IN      1 RECORDS. CPU TIME:     0.01 SEC, REAL TIME:     0.01 SEC

 FILE SIZES:   FILE 1:    30.2 MBYTE,  FILE 4:     4.2 MBYTE,   TOTAL:     34.4 MBYTE

 OPERATOR DM      FOR CENTER  0  COORDINATES:    0.000000    0.000000    0.000000


 **********************************************************************************************************************************
 DATASETS  * FILE   NREC   LENGTH (MB)   RECORD NAMES
              1      19       29.97       500      700      610      900      950      970     1000      129      960     1100   
                                          VAR     GEOM    BASINP   SYMINP    ZMAT    AOBASIS   BASIS     P2S    ABASIS      S 
                                         1400     1410     1200     1210     1080     1600     1650     1300     1700   
                                           T        V       H0       H01     AOSYM     SMH    MOLCAS    ERIS     OPER   

              3       5       14.77       500      610      700     1000     2100   
                                          VAR    BASINP    GEOM     BASIS     RHF  

 PROGRAMS   *        TOTAL       INT   RESTART
 CPU TIMES  *         0.26      0.14      0.02
 REAL TIME  *         0.39 SEC
 DISK USED  *        49.44 MB
 **********************************************************************************************************************************


 PROGRAM * BCCD (Closed-shell Brueckner coupled-cluster)     Authors: C. Hampel, H.-J. Werner, 1991, M. Deegan, P.J. Knowles, 1992


 Input parameters for THRESH:

 ENERGY   =    1.00D-10
 COEFF    =    1.00D-12
 PRINTCI  =    0.000000
 THRPRINT =    0.000000

 Convergence thresholds:  THRVAR = 1.00D-24  THRDEN = 1.00D-10

 Number of core orbitals:           2 (   1   0   0   0   1   0   0 )
 Number of closed-shell orbitals:   5 (   2   1   1   0   1   0   0 )
 Number of external orbitals:      11 (   2   1   1   0   3   2   2 )

 Molecular orbitals read from record     2100.3  Type=RHF/CANONICAL (state 1.1)

 Number of N-1 electron functions:               5
 Number of N-2 electron functions:              15
 Number of singly external CSFs:                 9
 Number of doubly external CSFs:               250
 Total number of CSFs:                         260

 Brueckner orbitals will be computed and saved on record    2150.2

 Length of J-op  integral file:               0.00 MB
 Length of K-op  integral file:               0.04 MB

 Integral transformation finished. Total CPU:   0.00 sec, npass=  1  Memory used:   0.07 MW

 Reference energy:                   -108.56037943

 MP2 singles energy:                   -0.00000000
 MP2 singlet pair energy:              -0.25607588
 MP2 triplet pair energy:              -0.20952665
 MP2 correlation energy:               -0.46560253
 MP2 total energy:                   -109.02598196

 SCS-MP2 correlation energy:           -0.43766319   (PS=  1.200000  PT=  0.333333)
 SCS-MP2 total energy:               -108.99804263

 ITER.      SQ.NORM     CORR.ENERGY   TOTAL ENERGY   ENERGY CHANGE        DEN1      VAR(S)    VAR(P)  DIIS     TIME  TIME/IT
   1      1.13988997    -0.39271056  -108.95308999     0.07289198     0.19756727  0.19D-01  0.90D-01  1  1     0.02     0.01
   2      1.18040136    -0.36951195  -108.90345604     0.02319861    -0.07415870  0.37D-02  0.16D-01  2  2     0.03     0.01
   3      1.20476240    -0.35319506  -108.90019086     0.01631689     0.00057742  0.18D-04  0.15D-02  3  3     0.03     0.01
   4      1.26678120    -0.35906536  -108.90472306    -0.00587030    -0.01985858  0.24D-04  0.92D-03  4  4     0.04     0.01
   5      1.28702261    -0.36358060  -108.90869110    -0.00451525    -0.00308829  0.14D-05  0.82D-04  5  5     0.04     0.01
   6      1.29248956    -0.36487406  -108.90955750    -0.00129346    -0.00005622  0.20D-06  0.11D-04  6  6     0.05     0.01
   7      1.29557199    -0.36516571  -108.90984895    -0.00029165    -0.00065429  0.59D-07  0.17D-05  6  1     0.05     0.01
   8      1.29475549    -0.36520830  -108.90991414    -0.00004259     0.00012853  0.62D-08  0.19D-06  6  2     0.06     0.01
   9      1.29490880    -0.36518409  -108.90989136     0.00002421    -0.00003022  0.53D-09  0.24D-07  6  3     0.06     0.01
  10      1.29506915    -0.36519721  -108.90989949    -0.00001312    -0.00003179  0.10D-09  0.25D-08  6  1     0.07     0.01
  11      1.29503488    -0.36520212  -108.90990191    -0.00000491     0.00000456  0.97D-11  0.26D-09  6  4     0.07     0.01
  12      1.29502095    -0.36520083  -108.90990083     0.00000129     0.00000243  0.29D-11  0.45D-10  6  5     0.08     0.01
  13      1.29502087    -0.36520008  -108.90990039     0.00000075     0.00000050  0.17D-12  0.35D-11  6  6     0.08     0.01
  14      1.29502242    -0.36520011  -108.90990038    -0.00000003    -0.00000037  0.54D-13  0.78D-12  6  2     0.08     0.01
  15      1.29502155    -0.36520011  -108.90990041    -0.00000000     0.00000019  0.35D-14  0.10D-12  6  3     0.09     0.01
  16      1.29502156    -0.36520008  -108.90990039     0.00000003     0.00000000  0.45D-16  0.38D-14  6  1     0.09     0.01
  17      1.29502157    -0.36520008  -108.90990039     0.00000000    -0.00000000  0.28D-16  0.72D-15  6  4     0.10     0.01
  18      1.29502158    -0.36520008  -108.90990039    -0.00000000    -0.00000000  0.30D-17  0.46D-16  6  5     0.10     0.01
  19      1.29502158    -0.36520008  -108.90990039    -0.00000000     0.00000000  0.15D-18  0.59D-17  6  2     0.10     0.01
  20      1.29502158    -0.36520008  -108.90990039     0.00000000    -0.00000000  0.23D-19  0.87D-18  6  6     0.11     0.01
  21      1.29502158    -0.36520008  -108.90990039    -0.00000000     0.00000000  0.23D-20  0.14D-18  6  3     0.11     0.01
  22      1.29502158    -0.36520008  -108.90990039    -0.00000000    -0.00000000  0.22D-20  0.18D-19  6  4     0.12     0.01
  23      1.29502158    -0.36520008  -108.90990039    -0.00000000     0.00000000  0.11D-21  0.35D-20  6  1     0.12     0.01
  24      1.29502158    -0.36520008  -108.90990039    -0.00000000     0.00000000  0.26D-23  0.18D-21  6  2     0.12     0.01
  25      1.29502158    -0.36520008  -108.90990039    -0.00000000    -0.00000000  0.71D-24  0.32D-22  6  5     0.12     0.01
  26      1.29502158    -0.36520008  -108.90990039    -0.00000000    -0.00000000  0.26D-24  0.24D-23  6  1     0.13     0.01
  27      1.29502158    -0.36520008  -108.90990039    -0.00000000    -0.00000000  0.17D-25  0.40D-24  6  6     0.13     0.01

 Norm of t1 vector:      0.00000000      S-energy:    -0.00000000      T1 diagnostic:  0.00000000

 Orbital rotation generators (print threshold =  0.000E+00):

         I         SYM. A    A   T(IA)

         1         1         1      0.01019440
         1         1         2     -0.00095855
         2         1         1     -0.00579910
         2         1         2     -0.02150809
         3         2         1      0.04967504
         4         3         1      0.04967504
         5         5         1      0.01920576
         5         5         2     -0.01126828
         5         5         3      0.00310219

 Doubles amplitudes (print threshold =  0.000E+00):

         I         J         SYM. A    SYM. B    A         B      T(IJ, AB)

         1         1         1         1         1         1     -0.00495137
         1         1         1         1         1         2     -0.00425542
         1         1         1         1         2         1     -0.00425542
         1         1         1         1         2         2     -0.01054430
         1         1         2         2         1         1     -0.00594192
         1         1         3         3         1         1     -0.00594192
         1         1         5         5         1         1     -0.03109892
         1         1         5         5         1         2      0.00750800
         1         1         5         5         1         3      0.01033862
         1         1         5         5         2         1      0.00750800
         1         1         5         5         2         2     -0.00430600
         1         1         5         5         2         3     -0.00186386
         1         1         5         5         3         1      0.01033862
         1         1         5         5         3         2     -0.00186386
         1         1         5         5         3         3     -0.00696991
         1         1         6         6         1         1     -0.01447482
         1         1         6         6         1         2      0.00747183
         1         1         6         6         2         1      0.00747183
         1         1         6         6         2         2     -0.00492607
         1         1         7         7         1         1     -0.01447482
         1         1         7         7         1         2      0.00747183
         1         1         7         7         2         1      0.00747183
         1         1         7         7         2         2     -0.00492607
         2         1         1         1         1         1      0.01018079
         2         1         1         1         1         2      0.00361481
         2         1         1         1         2         1     -0.00430805
         2         1         1         1         2         2     -0.00747618
         2         1         2         2         1         1      0.00217791
         2         1         3         3         1         1      0.00217791
         2         1         5         5         1         1     -0.03058495
         2         1         5         5         1         2      0.00588358
         2         1         5         5         1         3      0.01178540
         2         1         5         5         2         1      0.01399008
         2         1         5         5         2         2      0.00327094
         2         1         5         5         2         3     -0.00930451
         2         1         5         5         3         1      0.01079559
         2         1         5         5         3         2     -0.00518964
         2         1         5         5         3         3     -0.00096268
         2         1         6         6         1         1      0.00709040
         2         1         6         6         1         2     -0.00103968
         2         1         6         6         2         1      0.00084839
         2         1         6         6         2         2      0.00090262
         2         1         7         7         1         1      0.00709040
         2         1         7         7         1         2     -0.00103968
         2         1         7         7         2         1      0.00084839
         2         1         7         7         2         2      0.00090262
         2         2         1         1         1         1     -0.02168517
         2         2         1         1         1         2      0.00716451
         2         2         1         1         2         1      0.00716451
         2         2         1         1         2         2     -0.00513215
         2         2         2         2         1         1     -0.00242225
         2         2         3         3         1         1     -0.00242225
         2         2         5         5         1         1     -0.09048235
         2         2         5         5         1         2      0.03011516
         2         2         5         5         1         3     -0.00228799
         2         2         5         5         2         1      0.03011516
         2         2         5         5         2         2     -0.02873314
         2         2         5         5         2         3      0.00359611
         2         2         5         5         3         1     -0.00228799
         2         2         5         5         3         2      0.00359611
         2         2         5         5         3         3     -0.00352688
         2         2         6         6         1         1     -0.02448161
         2         2         6         6         1         2      0.00287090
         2         2         6         6         2         1      0.00287090
         2         2         6         6         2         2     -0.00221416
         2         2         7         7         1         1     -0.02448161
         2         2         7         7         1         2      0.00287090
         2         2         7         7         2         1      0.00287090
         2         2         7         7         2         2     -0.00221416
         3         3         1         1         1         1     -0.00465156
         3         3         1         1         1         2     -0.00355692
         3         3         1         1         2         1     -0.00355692
         3         3         1         1         2         2     -0.00631592
         3         3         2         2         1         1     -0.01802046
         3         3         3         3         1         1     -0.00118895
         3         3         5         5         1         1     -0.01871204
         3         3         5         5         1         2      0.00179591
         3         3         5         5         1         3      0.00146399
         3         3         5         5         2         1      0.00179591
         3         3         5         5         2         2     -0.00183912
         3         3         5         5         2         3      0.00107731
         3         3         5         5         3         1      0.00146399
         3         3         5         5         3         2      0.00107731
         3         3         5         5         3         3     -0.00346476
         3         3         6         6         1         1     -0.26418355
         3         3         6         6         1         2      0.03631845
         3         3         6         6         2         1      0.03631845
         3         3         6         6         2         2     -0.01359097
         3         3         7         7         1         1     -0.02475300
         3         3         7         7         1         2      0.00294223
         3         3         7         7         2         1      0.00294223
         3         3         7         7         2         2     -0.00086650
         4         4         1         1         1         1     -0.00465156
         4         4         1         1         1         2     -0.00355692
         4         4         1         1         2         1     -0.00355692
         4         4         1         1         2         2     -0.00631592
         4         4         2         2         1         1     -0.00118895
         4         4         3         3         1         1     -0.01802046
         4         4         5         5         1         1     -0.01871204
         4         4         5         5         1         2      0.00179591
         4         4         5         5         1         3      0.00146399
         4         4         5         5         2         1      0.00179591
         4         4         5         5         2         2     -0.00183912
         4         4         5         5         2         3      0.00107731
         4         4         5         5         3         1      0.00146399
         4         4         5         5         3         2      0.00107731
         4         4         5         5         3         3     -0.00346476
         4         4         6         6         1         1     -0.02475300
         4         4         6         6         1         2      0.00294223
         4         4         6         6         2         1      0.00294223
         4         4         6         6         2         2     -0.00086650
         4         4         7         7         1         1     -0.26418355
         4         4         7         7         1         2      0.03631845
         4         4         7         7         2         1      0.03631845
         4         4         7         7         2         2     -0.01359097
         5         5         1         1         1         1     -0.01530879
         5         5         1         1         1         2     -0.00194921
         5         5         1         1         2         1     -0.00194921
         5         5         1         1         2         2     -0.00295018
         5         5         2         2         1         1     -0.00674345
         5         5         3         3         1         1     -0.00674345
         5         5         5         5         1         1     -0.02989892
         5         5         5         5         1         2      0.00644282
         5         5         5         5         1         3      0.00160774
         5         5         5         5         2         1      0.00644282
         5         5         5         5         2         2     -0.01293127
         5         5         5         5         2         3      0.00587858
         5         5         5         5         3         1      0.00160774
         5         5         5         5         3         2      0.00587858
         5         5         5         5         3         3     -0.00695663
         5         5         6         6         1         1     -0.04720102
         5         5         6         6         1         2      0.01102880
         5         5         6         6         2         1      0.01102880
         5         5         6         6         2         2     -0.00606827
         5         5         7         7         1         1     -0.04720102
         5         5         7         7         1         2      0.01102880
         5         5         7         7         2         1      0.01102880
         5         5         7         7         2         2     -0.00606827
         3         1         1         2         1         1      0.00572528
         3         1         1         2         2         1      0.00501772
         3         1         2         1         1         1      0.01120860
         3         1         2         1         1         2      0.01185208
         3         1         5         6         1         1     -0.03219708
         3         1         5         6         1         2      0.00869711
         3         1         5         6         2         1     -0.00204967
         3         1         5         6         2         2      0.00181461
         3         1         5         6         3         1      0.00302820
         3         1         5         6         3         2     -0.00404674
         3         1         6         5         1         1     -0.03150858
         3         1         6         5         1         2     -0.00070736
         3         1         6         5         1         3      0.00722241
         3         1         6         5         2         1      0.01486827
         3         1         6         5         2         2      0.00121602
         3         1         6         5         2         3     -0.00882414
         3         2         1         2         1         1     -0.00406492
         3         2         1         2         2         1     -0.00000212
         3         2         2         1         1         1     -0.01518749
         3         2         2         1         1         2      0.00723735
         3         2         5         6         1         1     -0.03611778
         3         2         5         6         1         2      0.00587647
         3         2         5         6         2         1      0.01622013
         3         2         5         6         2         2     -0.00510193
         3         2         5         6         3         1      0.00211919
         3         2         5         6         3         2      0.00194170
         3         2         6         5         1         1     -0.06786011
         3         2         6         5         1         2      0.02544311
         3         2         6         5         1         3      0.00027625
         3         2         6         5         2         1      0.01557181
         3         2         6         5         2         2     -0.01545698
         3         2         6         5         2         3      0.00149063
         4         1         1         3         1         1      0.00572528
         4         1         1         3         2         1      0.00501772
         4         1         3         1         1         1      0.01120860
         4         1         3         1         1         2      0.01185208
         4         1         5         7         1         1     -0.03219708
         4         1         5         7         1         2      0.00869711
         4         1         5         7         2         1     -0.00204967
         4         1         5         7         2         2      0.00181461
         4         1         5         7         3         1      0.00302820
         4         1         5         7         3         2     -0.00404674
         4         1         7         5         1         1     -0.03150858
         4         1         7         5         1         2     -0.00070736
         4         1         7         5         1         3      0.00722241
         4         1         7         5         2         1      0.01486827
         4         1         7         5         2         2      0.00121602
         4         1         7         5         2         3     -0.00882414
         4         2         1         3         1         1     -0.00406492
         4         2         1         3         2         1     -0.00000212
         4         2         3         1         1         1     -0.01518749
         4         2         3         1         1         2      0.00723735
         4         2         5         7         1         1     -0.03611778
         4         2         5         7         1         2      0.00587647
         4         2         5         7         2         1      0.01622013
         4         2         5         7         2         2     -0.00510193
         4         2         5         7         3         1      0.00211919
         4         2         5         7         3         2      0.00194170
         4         2         7         5         1         1     -0.06786011
         4         2         7         5         1         2      0.02544311
         4         2         7         5         1         3      0.00027625
         4         2         7         5         2         1      0.01557181
         4         2         7         5         2         2     -0.01545698
         4         2         7         5         2         3      0.00149063
         4         3         2         3         1         1     -0.00064900
         4         3         3         2         1         1     -0.01618251
         4         3         6         7         1         1     -0.11835360
         4         3         6         7         1         2      0.01356791
         4         3         6         7         2         1      0.01356791
         4         3         6         7         2         2     -0.00170318
         4         3         7         6         1         1     -0.12107694
         4         3         7         6         1         2      0.01980832
         4         3         7         6         2         1      0.01980832
         4         3         7         6         2         2     -0.01102129
         5         1         1         5         1         1      0.00483391
         5         1         1         5         1         2      0.00444982
         5         1         1         5         1         3     -0.00636040
         5         1         1         5         2         1      0.00943667
         5         1         1         5         2         2     -0.00262362
         5         1         1         5         2         3     -0.00452683
         5         1         2         6         1         1     -0.01208495
         5         1         2         6         1         2      0.00624272
         5         1         3         7         1         1     -0.01208495
         5         1         3         7         1         2      0.00624272
         5         1         5         1         1         1      0.00211357
         5         1         5         1         1         2      0.00879081
         5         1         5         1         2         1      0.00701843
         5         1         5         1         2         2      0.00039659
         5         1         5         1         3         1     -0.00591119
         5         1         5         1         3         2     -0.00722541
         5         1         6         2         1         1     -0.00956575
         5         1         6         2         2         1      0.00611471
         5         1         7         3         1         1     -0.00956575
         5         1         7         3         2         1      0.00611471
         5         2         1         5         1         1      0.01520238
         5         2         1         5         1         2     -0.02024286
         5         2         1         5         1         3      0.00414303
         5         2         1         5         2         1      0.00818976
         5         2         1         5         2         2     -0.00301172
         5         2         1         5         2         3     -0.00219917
         5         2         2         6         1         1      0.00683056
         5         2         2         6         1         2     -0.00270634
         5         2         3         7         1         1      0.00683056
         5         2         3         7         1         2     -0.00270634
         5         2         5         1         1         1      0.00399690
         5         2         5         1         1         2      0.00905972
         5         2         5         1         2         1     -0.01763471
         5         2         5         1         2         2      0.00250593
         5         2         5         1         3         1      0.00894187
         5         2         5         1         3         2     -0.00597120
         5         2         6         2         1         1      0.00676289
         5         2         6         2         2         1     -0.00301170
         5         2         7         3         1         1      0.00676289
         5         2         7         3         2         1     -0.00301170
         5         3         1         6         1         1      0.01857126
         5         3         1         6         1         2     -0.01394151
         5         3         1         6         2         1      0.00931575
         5         3         1         6         2         2     -0.00599077
         5         3         2         5         1         1     -0.00507661
         5         3         2         5         1         2     -0.00365322
         5         3         2         5         1         3      0.00459102
         5         3         5         2         1         1     -0.00611495
         5         3         5         2         2         1     -0.01067367
         5         3         5         2         3         1      0.01210415
         5         3         6         1         1         1      0.01342522
         5         3         6         1         1         2      0.00278462
         5         3         6         1         2         1     -0.00765508
         5         3         6         1         2         2     -0.00394196
         5         4         1         7         1         1      0.01857126
         5         4         1         7         1         2     -0.01394151
         5         4         1         7         2         1      0.00931575
         5         4         1         7         2         2     -0.00599077
         5         4         3         5         1         1     -0.00507661
         5         4         3         5         1         2     -0.00365322
         5         4         3         5         1         3      0.00459102
         5         4         5         3         1         1     -0.00611495
         5         4         5         3         2         1     -0.01067367
         5         4         5         3         3         1      0.01210415
         5         4         7         1         1         1      0.01342522
         5         4         7         1         1         2      0.00278462
         5         4         7         1         2         1     -0.00765508
         5         4         7         1         2         2     -0.00394196


 RESULTS
 =======

  Reference energy                   -108.544700305418
  BCCD singlet pair energy             -0.305662223578
  BCCD triplet pair energy             -0.059537858852
  BCCD correlation energy              -0.365200082430

 !BCCD total energy                  -108.909900387848

 Approximate expectation values using Brueckner orbitals

 !BCCD(ref) STATE  1.1 Dipole momen     0.00000000     0.00000000     0.00000000
 Dipole moment /Debye                   0.00000000     0.00000000     0.00000000

 Brueckner orbitals saved on record           2150.2 (orbital set 1)
 Brueckner density (ref) saved on record      2150.2 (density set 1)

 Brueckner orbitals
 ==================

   Orb     Occ           Coefficients

                         1 1s      1 1s      1 1s      1 2pz     1 2pz  

   2.1    2.0000000   -0.212705  0.483018  0.437290  0.168073  0.054924

   3.1    2.0000000    0.061100 -0.125183 -0.296726  0.657693  0.361501

                         1 2px     1 2px  

   1.2    2.0000000    0.638979  0.420335

                         1 2py     1 2py  

   1.3    2.0000000    0.638979  0.420335

                         1 1s      1 1s      1 1s      1 2pz     1 2pz  

   2.5    2.0000000   -0.229591  0.544149  0.650447 -0.125980 -0.025142

 Timing summary (sec):

 STEP                 CPU(USER)    SYS     CPU(TOT)    WALL
 Transformation          0.07      0.03      0.10      0.08
 CCSD iterations         0.09      0.04      0.13      0.13

 Program statistics:

 Available memory in ccsd:                39999100
 Min. memory needed in ccsd:                  2282
 Max. memory used in ccsd:                    2323
 Max. memory used in cckext:                 35450 (27 integral passes)



 **********************************************************************************************************************************
 DATASETS  * FILE   NREC   LENGTH (MB)   RECORD NAMES
              1      20       29.99       500      700      610      900      950      970     1000      129      960     1100   
                                          VAR     GEOM    BASINP   SYMINP    ZMAT    AOBASIS   BASIS     P2S    ABASIS      S 
                                         1400     1410     1200     1210     1080     1600     1650     1300     1700     1380   
                                           T        V       H0       H01     AOSYM     SMH    MOLCAS    ERIS     OPER     JKOP   

              2       4        2.74       700     1000      520     2150   
                                         GEOM     BASIS   MCVARS    BCCD   

              3       5       14.77       500      610      700     1000     2100   
                                          VAR    BASINP    GEOM     BASIS     RHF  

 PROGRAMS   *        TOTAL      BCCD       INT   RESTART
 CPU TIMES  *         0.49      0.23      0.14      0.02
 REAL TIME  *         0.68 SEC
 DISK USED  *        49.44 MB
 **********************************************************************************************************************************

 Dump information in style XML to orbitals.xml                                                                    

 Variables will not be exported.
 Molecular orbitals read from record     2150.2  Type=BCCD/BRUECKNER (state 1.1)
 Occupation numbers read from record     2150.2  Type=BCCD/BRUECKNER (state 1.1)

 No orbital energies found for orbital set 0

 No redundancy group numbers found for orbital set 0

 **********************************************************************************************************************************

 BCCD/6-31G energy=   -108.909900387848

            BCCD
   -108.90990039
 **********************************************************************************************************************************
 Molpro calculation terminated
