
 Primary working directories    : /scr/yuriaoto/job.023585/molpro.sSehiQwHTc
 Secondary working directories  : /scr/yuriaoto/job.023585/molpro.sSehiQwHTc
 Wavefunction directory         : /scr/yuriaoto/job.023585/
 Main file repository           : /scr/yuriaoto/job.023585/molpro.sSehiQwHTc/

 id        : yuriaoto

 Nodes             nprocs
 t-rex.ufabc.int.br    1

 Using customized tuning parameters: mindgm=8; mindgv=16; mindgc=1; mindgr=1; noblas=0; minvec=7
 default implementation of scratch files=df  


 Variables initialized (933), CPU time= 0.00 sec
 ***,
 memory,40,m
 gprint,orbital,basis,civector
 gthresh,thrprint=0,printci=0.0
 file,3,wfu.dat,old
 
 {ccsd,CC_NORM_MAX=10.0
 nosingle
 thresh,printci=0.0,ENERGY=1.0E-10,COEFF=1.0E-12
 print,ref=1
 wf,14,1,0;
 }
 
 Commands  initialized (760), CPU time= 0.00 sec, 617 directives.
 Default parameters read. Elapsed time= 0.04 sec

 Checking input...
 Passed
1


                                         ***  PROGRAM SYSTEM MOLPRO  ***
                                       Copyright, TTI GmbH Stuttgart, 2015
                                    Version 2019.2 linked Abr  7 2019 15:10:35


 **********************************************************************************************************************************
 LABEL *                                                                                 
  64 bit serial version                                                                  DATE: 05-Jun-20          TIME: 21:21:32  
 **********************************************************************************************************************************

 SHA1:             3a8a58c585c929645742fb5a1b7541a4ad1da699
 **********************************************************************************************************************************


 THRESHOLDS:

 ZERO    =  1.00D-12  ONEINT  =  1.00D-12  TWOINT  =  1.00D-11  PREFAC  =  1.00D-14  XXXXXX  =  1.00D-09  EORDER  =  1.00D-04
 ENERGY  =  0.00D+00  ETEST   =  0.00D+00  EDENS   =  0.00D+00  THRDEDEF=  1.00D-06  GRADIENT=  1.00D-02  STEP    =  1.00D-03
 ORBITAL =  1.00D-05  CIVEC   =  1.00D-05  COEFF   =  1.00D-04  PRINTCI =  0.00D+00  PUNCHCI =  9.90D+01  OPTGRAD =  3.00D-04
 OPTENERG=  1.00D-06  OPTSTEP =  3.00D-04  THRGRAD =  1.00D-10  COMPRESS=  1.00D-11  VARMIN  =  1.00D-07  VARMAX  =  1.00D-03
 THRDOUB =  0.00D+00  THRDIV  =  1.00D-05  THRRED  =  1.00D-07  THRPSP  =  1.00D+00  THRDC   =  1.00D-10  THRCS   =  1.00D-10
 THRNRM  =  1.00D-08  THREQ   =  0.00D+00  THRDE   =  1.00D+00  THRREF  =  1.00D-05  SPARFAC =  1.00D+00  THRDLP  =  1.00D-07
 THRDIA  =  1.00D-10  THRDLS  =  1.00D-07  THRGPS  =  0.00D+00  THRKEX  =  0.00D+00  THRDIS  =  2.00D-01  THRVAR  =  1.00D-10
 THRLOC  =  1.00D-06  THRGAP  =  1.00D-06  THRLOCT = -1.00D+00  THRGAPT = -1.00D+00  THRORB  =  1.00D-06  THRMLTP =  0.00D+00
 THRCPQCI=  1.00D-10  KEXTA   =  0.00D+00  THRCOARS=  0.00D+00  SYMTOL  =  1.00D-06  GRADTOL =  1.00D-06  THROVL  =  1.00D-08
 THRORTH =  1.00D-08  GRID    =  1.00D-06  GRIDMAX =  1.00D-03  DTMAX   =  0.00D+00  THROCCDE=  1.00D-01  THROCCDE=  1.00D-01
 THRPRINT=  0.00D+00


 Variable memory set to   40000000 words,  buffer space 



 Permanent file  3  wfu.dat  assigned.  Implementation=df    Size= 14.08 MB


 PROGRAM * RESTART 


 Reading variables from file 3

 _FNUC           =      0.00000000
 _BASIS          =    6-31G
 _NELEC          =     14.00000000
 _PROGRAM        =    RHF-SCF
 _DMX_SCF        =      0.00000000
 _DMY_SCF        =      0.00000000
 _DMZ_SCF        =      0.00000000
 _HOMO           =      1.20000000
 _EHOMO          =     -0.47733994
 _LUMO           =      1.60000000
 _ELUMO          =     -0.02720870
 _ENERGY         =   -108.56037943
 _ENERGY_METHOD  =    RHF
 _ENERGY_BASIS   =    6-31G
 _ENUC           =     16.33333333
 _EPS1(1:5)      =    -15.81771777    -1.22408989    -0.55476884     0.90356566     1.08163906
 _EPS2(1:2)      =     -0.47733994     0.86881343
 _EPS3(1:2)      =     -0.47733994     0.86881343
 _EPS5(1:5)      =    -15.81713369    -0.91208671     0.20403463     0.84931301     1.30241938
 _EPS6(1:2)      =     -0.02720870     0.95746624
 _EPS7(1:2)      =     -0.02720870     0.95746624
 _IPROC_MPP      =      0.00000000
 _IPROC_MPPX     =      0.00000000
 _ORBITAL        =   2100.30000000
 _STATUS         =      1.00000000
 _DATE           =    20-Mar-20
 _LASTORB        =    RHF
 _OUTPUT         =    /scr/yuriaoto/job.022805/RHF.xml
 _PGROUP         =    D2h 
 _TIME           =    18:50:32
 R               =      3.00000000

 Geometry written to block  1 of record 700


 **********************************************************************************************************************************
 DATASETS  * FILE   NREC   LENGTH (MB)   RECORD NAMES
              3       5       14.77       500      610      700     1000     2100   
                                          VAR    BASINP    GEOM     BASIS     RHF  

 PROGRAMS   *        TOTAL   RESTART
 CPU TIMES  *         0.11      0.02
 REAL TIME  *         0.14 SEC
 DISK USED  *        26.84 MB
 **********************************************************************************************************************************


 Recomputing integrals since basis changed


 Using spherical harmonics

 Library entry N      S 6-31G                selected for orbital group  1
 Library entry N      P 6-31G                selected for orbital group  1


 PROGRAM * SEWARD (Integral evaluation for generally contracted gaussian basis sets)     Author: Roland Lindh, 1990

 Geometry written to block  1 of record 700

 Orientation using atomic masses  
 Molecule type: Linear
 User-specified symmetry elements: X,Y,Z
 Symmetry elements: X,Y,Z
 Rotational constants:      28.6329822     28.6329822      0.0000000 GHz  (calculated with average atomic masses)

 Point group  D2h 



 ATOMIC COORDINATES

 NR  ATOM    CHARGE       X              Y              Z

   1  N1      7.00    0.000000000    0.000000000   -1.500000000
   2  N2      7.00    0.000000000    0.000000000    1.500000000

 Bond lengths in Bohr (Angstrom)

 1-2  3.000000000
     ( 1.587531633)


 BASIS DATA

   Nr Sym  Nuc  Type         Exponents   Contraction coefficients

    1.1 Ag    1  1s        4173.511500     0.001835
              2  1s         627.457910     0.013995
                            142.902090     0.068587
                             40.234329     0.232241
                             12.820213     0.469070
                              4.390437     0.360455
    2.1 Ag    1  1s          11.626362    -0.114961
              2  1s           2.716280    -0.169117
                              0.772218     1.145852
    3.1 Ag    1  1s           0.212032     1.000000
              2  1s    
    4.1 Ag    1  2pz         11.626362     0.067580
              2 -2pz          2.716280     0.323907
                              0.772218     0.740895
    5.1 Ag    1  2pz          0.212032     1.000000
              2 -2pz   
    1.2 B3u   1  2px         11.626362     0.067580
              2  2px          2.716280     0.323907
                              0.772218     0.740895
    2.2 B3u   1  2px          0.212032     1.000000
              2  2px   
    1.3 B2u   1  2py         11.626362     0.067580
              2  2py          2.716280     0.323907
                              0.772218     0.740895
    2.3 B2u   1  2py          0.212032     1.000000
              2  2py   
    1.5 B1u   1  1s        4173.511500     0.001835
              2 -1s         627.457910     0.013995
                            142.902090     0.068587
                             40.234329     0.232241
                             12.820213     0.469070
                              4.390437     0.360455
    2.5 B1u   1  1s          11.626362    -0.114961
              2 -1s           2.716280    -0.169117
                              0.772218     1.145852
    3.5 B1u   1  1s           0.212032     1.000000
              2 -1s    
    4.5 B1u   1  2pz         11.626362     0.067580
              2  2pz          2.716280     0.323907
                              0.772218     0.740895
    5.5 B1u   1  2pz          0.212032     1.000000
              2  2pz   
    1.6 B2g   1  2px         11.626362     0.067580
              2 -2px          2.716280     0.323907
                              0.772218     0.740895
    2.6 B2g   1  2px          0.212032     1.000000
              2 -2px   
    1.7 B3g   1  2py         11.626362     0.067580
              2 -2py          2.716280     0.323907
                              0.772218     0.740895
    2.7 B3g   1  2py          0.212032     1.000000
              2 -2py   

 NUCLEAR CHARGE:                   14
 NUMBER OF PRIMITIVE AOS:          44
 NUMBER OF SYMMETRY AOS:           44
 NUMBER OF CONTRACTIONS:           18   (    5Ag  +    2B3u +    2B2u +    0B1g +    5B1u +    2B2g +    2B3g +    0Au  )
 NUMBER OF CORE ORBITALS:           2   (    1Ag  +    0B3u +    0B2u +    0B1g +    1B1u +    0B2g +    0B3g +    0Au  )
 NUMBER OF VALENCE ORBITALS:        8   (    2Ag  +    1B3u +    1B2u +    0B1g +    2B1u +    1B2g +    1B3g +    0Au  )


 NUCLEAR REPULSION ENERGY   16.33333333

 Eigenvalues of metric

         1 0.238E+00 0.415E+00 0.926E+00 0.155E+01 0.276E+01
         2 0.544E+00 0.186E+01
         3 0.544E+00 0.186E+01
         5 0.420E-01 0.342E+00 0.806E+00 0.100E+01 0.192E+01
         6 0.352E+00 0.124E+01
         7 0.352E+00 0.124E+01


 Contracted 2-electron integrals neglected if value below      1.0D-11
 AO integral compression algorithm  1   Integral accuracy      1.0D-11

     0.262 MB (compressed) written to integral file (100.0%)


 NUMBER OF SORTED TWO-ELECTRON INTEGRALS:       2829.     BUFFER LENGTH:  32768
 NUMBER OF SEGMENTS:   1  SEGMENT LENGTH:       2829      RECORD LENGTH: 524288

 Memory used in sort:       0.56 MW

 SORT1 READ        8184. AND WROTE        2829. INTEGRALS IN      1 RECORDS. CPU TIME:     0.00 SEC, REAL TIME:     0.00 SEC
 SORT2 READ        2829. AND WROTE        2829. INTEGRALS IN      1 RECORDS. CPU TIME:     0.00 SEC, REAL TIME:     0.00 SEC

 FILE SIZES:   FILE 1:    30.2 MBYTE,  FILE 4:     4.2 MBYTE,   TOTAL:     34.4 MBYTE

 OPERATOR DM      FOR CENTER  0  COORDINATES:    0.000000    0.000000    0.000000


 **********************************************************************************************************************************
 DATASETS  * FILE   NREC   LENGTH (MB)   RECORD NAMES
              1      19       29.97       500      700      610      900      950      970     1000      129      960     1100   
                                          VAR     GEOM    BASINP   SYMINP    ZMAT    AOBASIS   BASIS     P2S    ABASIS      S 
                                         1400     1410     1200     1210     1080     1600     1650     1300     1700   
                                           T        V       H0       H01     AOSYM     SMH    MOLCAS    ERIS     OPER   

              3       5       14.77       500      610      700     1000     2100   
                                          VAR    BASINP    GEOM     BASIS     RHF  

 PROGRAMS   *        TOTAL       INT   RESTART
 CPU TIMES  *         0.31      0.20      0.02
 REAL TIME  *         0.45 SEC
 DISK USED  *        49.44 MB
 **********************************************************************************************************************************


 PROGRAM * CCSD (Closed-shell coupled cluster)     Authors: C. Hampel, H.-J. Werner, 1991, M. Deegan, P.J. Knowles, 1992


 Input parameters for THRESH:

 ENERGY   =    1.00D-10
 COEFF    =    1.00D-12
 PRINTCI  =    0.000000
 THRPRINT =    0.000000

 Convergence thresholds:  THRVAR = 1.00D-24  THRDEN = 1.00D-10

 Number of core orbitals:           2 (   1   0   0   0   1   0   0 )
 Number of closed-shell orbitals:   5 (   2   1   1   0   1   0   0 )
 Number of external orbitals:      11 (   2   1   1   0   3   2   2 )

 Molecular orbitals read from record     2100.3  Type=RHF/CANONICAL (state 1.1)

 Number of N-1 electron functions:               0
 Number of N-2 electron functions:              15
 Number of singly external CSFs:                 0
 Number of doubly external CSFs:               250
 Total number of CSFs:                         251

 Length of J-op  integral file:               0.00 MB
 Length of K-op  integral file:               0.04 MB
 Length of 3-ext integral record:             0.00 MB

 Integral transformation finished. Total CPU:   0.00 sec, npass=  1  Memory used:   0.07 MW

 Reference energy:                   -108.56037943

 MP2 singlet pair energy:              -0.25607588
 MP2 triplet pair energy:              -0.20952665
 MP2 correlation energy:               -0.46560253
 MP2 total energy:                   -109.02598196

 SCS-MP2 correlation energy:           -0.43766319   (PS=  1.200000  PT=  0.333333)
 SCS-MP2 total energy:               -108.99804263

 ITER.      SQ.NORM     CORR.ENERGY   TOTAL ENERGY   ENERGY CHANGE        DEN1      VAR(S)    VAR(P)  DIIS     TIME  TIME/IT
   1      1.12111536    -0.36431436  -108.92469380     0.10128817     0.19756728  0.00D+00  0.90D-01  1  1     0.00     0.00
   2      1.17546146    -0.33450809  -108.89488753     0.02980627    -0.05393722  0.00D+00  0.31D-02  2  2     0.01     0.00
   3      1.20041812    -0.33700792  -108.89738735    -0.00249983    -0.00781572  0.00D+00  0.86D-03  3  3     0.01     0.00
   4      1.25288412    -0.34509267  -108.90547210    -0.00808475    -0.01201928  0.00D+00  0.16D-03  4  4     0.01     0.00
   5      1.26461600    -0.34349562  -108.90387506     0.00159704    -0.00113648  0.00D+00  0.14D-04  5  5     0.01     0.00
   6      1.27125689    -0.34401728  -108.90439671    -0.00052166    -0.00106352  0.00D+00  0.14D-05  6  6     0.01     0.00
   7      1.27156013    -0.34407489  -108.90445433    -0.00005762    -0.00005581  0.00D+00  0.13D-06  6  3     0.01     0.00
   8      1.27157690    -0.34405212  -108.90443155     0.00002278     0.00003527  0.00D+00  0.22D-07  6  1     0.02     0.00
   9      1.27185256    -0.34407516  -108.90445460    -0.00002305    -0.00006177  0.00D+00  0.31D-08  6  2     0.02     0.00
  10      1.27175725    -0.34406993  -108.90444936     0.00000524     0.00002011  0.00D+00  0.15D-09  6  4     0.02     0.00
  11      1.27175170    -0.34406973  -108.90444916     0.00000020     0.00000061  0.00D+00  0.21D-10  6  5     0.02     0.00
  12      1.27175610    -0.34407001  -108.90444944    -0.00000028    -0.00000085  0.00D+00  0.18D-11  6  6     0.02     0.00
  13      1.27175708    -0.34407003  -108.90444947    -0.00000003    -0.00000016  0.00D+00  0.14D-12  6  3     0.02     0.00
  14      1.27175678    -0.34407001  -108.90444945     0.00000002     0.00000006  0.00D+00  0.24D-13  6  1     0.03     0.00
  15      1.27175686    -0.34407002  -108.90444945    -0.00000000    -0.00000002  0.00D+00  0.46D-14  6  2     0.03     0.00
  16      1.27175682    -0.34407001  -108.90444945     0.00000000     0.00000001  0.00D+00  0.84D-15  6  4     0.03     0.00
  17      1.27175686    -0.34407002  -108.90444945    -0.00000000    -0.00000001  0.00D+00  0.30D-16  6  5     0.03     0.00
  18      1.27175686    -0.34407002  -108.90444945     0.00000000     0.00000000  0.00D+00  0.35D-17  6  6     0.03     0.00
  19      1.27175686    -0.34407002  -108.90444945    -0.00000000    -0.00000000  0.00D+00  0.16D-18  6  3     0.03     0.00
  20      1.27175686    -0.34407002  -108.90444945    -0.00000000    -0.00000000  0.00D+00  0.19D-19  6  1     0.03     0.00
  21      1.27175686    -0.34407002  -108.90444945    -0.00000000     0.00000000  0.00D+00  0.44D-20  6  2     0.03     0.00
  22      1.27175686    -0.34407002  -108.90444945     0.00000000     0.00000000  0.00D+00  0.10D-20  6  4     0.04     0.00
  23      1.27175686    -0.34407002  -108.90444945     0.00000000    -0.00000000  0.00D+00  0.92D-22  6  6     0.04     0.00
  24      1.27175686    -0.34407002  -108.90444945     0.00000000     0.00000000  0.00D+00  0.86D-23  6  5     0.04     0.00
  25      1.27175686    -0.34407002  -108.90444945    -0.00000000    -0.00000000  0.00D+00  0.36D-23  6  3     0.04     0.00
  26      1.27175686    -0.34407002  -108.90444945    -0.00000000    -0.00000000  0.00D+00  0.33D-24  6  1     0.04     0.00


 Doubles amplitudes (print threshold =  0.000E+00):

         I         J         SYM. A    SYM. B    A         B      T(IJ, AB)

         1         1         1         1         1         1     -0.00481064
         1         1         1         1         1         2     -0.00412794
         1         1         1         1         2         1     -0.00412794
         1         1         1         1         2         2     -0.01053169
         1         1         2         2         1         1     -0.00645272
         1         1         3         3         1         1     -0.00645272
         1         1         5         5         1         1     -0.03248495
         1         1         5         5         1         2      0.00811694
         1         1         5         5         1         3      0.01048610
         1         1         5         5         2         1      0.00811694
         1         1         5         5         2         2     -0.00440961
         1         1         5         5         2         3     -0.00194821
         1         1         5         5         3         1      0.01048610
         1         1         5         5         3         2     -0.00194821
         1         1         5         5         3         3     -0.00688201
         1         1         6         6         1         1     -0.01590283
         1         1         6         6         1         2      0.00796347
         1         1         6         6         2         1      0.00796347
         1         1         6         6         2         2     -0.00500881
         1         1         7         7         1         1     -0.01590283
         1         1         7         7         1         2      0.00796347
         1         1         7         7         2         1      0.00796347
         1         1         7         7         2         2     -0.00500881
         2         1         1         1         1         1      0.00991158
         2         1         1         1         1         2      0.00350195
         2         1         1         1         2         1     -0.00438744
         2         1         1         1         2         2     -0.00750583
         2         1         2         2         1         1      0.00257602
         2         1         3         3         1         1      0.00257602
         2         1         5         5         1         1     -0.03118781
         2         1         5         5         1         2      0.00591893
         2         1         5         5         1         3      0.01161576
         2         1         5         5         2         1      0.01441457
         2         1         5         5         2         2      0.00302838
         2         1         5         5         2         3     -0.00923411
         2         1         5         5         3         1      0.01028192
         2         1         5         5         3         2     -0.00507945
         2         1         5         5         3         3     -0.00090592
         2         1         6         6         1         1      0.00790731
         2         1         6         6         1         2     -0.00155267
         2         1         6         6         2         1      0.00020887
         2         1         6         6         2         2      0.00104740
         2         1         7         7         1         1      0.00790731
         2         1         7         7         1         2     -0.00155267
         2         1         7         7         2         1      0.00020887
         2         1         7         7         2         2      0.00104740
         2         2         1         1         1         1     -0.02139711
         2         2         1         1         1         2      0.00748050
         2         2         1         1         2         1      0.00748050
         2         2         1         1         2         2     -0.00511694
         2         2         2         2         1         1     -0.00281503
         2         2         3         3         1         1     -0.00281503
         2         2         5         5         1         1     -0.08682754
         2         2         5         5         1         2      0.02944467
         2         2         5         5         1         3     -0.00224440
         2         2         5         5         2         1      0.02944467
         2         2         5         5         2         2     -0.02856589
         2         2         5         5         2         3      0.00361513
         2         2         5         5         3         1     -0.00224440
         2         2         5         5         3         2      0.00361513
         2         2         5         5         3         3     -0.00333859
         2         2         6         6         1         1     -0.02439851
         2         2         6         6         1         2      0.00323343
         2         2         6         6         2         1      0.00323343
         2         2         6         6         2         2     -0.00220513
         2         2         7         7         1         1     -0.02439851
         2         2         7         7         1         2      0.00323343
         2         2         7         7         2         1      0.00323343
         2         2         7         7         2         2     -0.00220513
         3         3         1         1         1         1     -0.00461460
         3         3         1         1         1         2     -0.00374325
         3         3         1         1         2         1     -0.00374325
         3         3         1         1         2         2     -0.00687853
         3         3         2         2         1         1     -0.01787573
         3         3         3         3         1         1     -0.00115956
         3         3         5         5         1         1     -0.01865372
         3         3         5         5         1         2      0.00160510
         3         3         5         5         1         3      0.00105353
         3         3         5         5         2         1      0.00160510
         3         3         5         5         2         2     -0.00164801
         3         3         5         5         2         3      0.00113044
         3         3         5         5         3         1      0.00105353
         3         3         5         5         3         2      0.00113044
         3         3         5         5         3         3     -0.00368609
         3         3         6         6         1         1     -0.25072483
         3         3         6         6         1         2      0.03235946
         3         3         6         6         2         1      0.03235946
         3         3         6         6         2         2     -0.01251700
         3         3         7         7         1         1     -0.02385322
         3         3         7         7         1         2      0.00234697
         3         3         7         7         2         1      0.00234697
         3         3         7         7         2         2     -0.00076388
         4         4         1         1         1         1     -0.00461460
         4         4         1         1         1         2     -0.00374325
         4         4         1         1         2         1     -0.00374325
         4         4         1         1         2         2     -0.00687853
         4         4         2         2         1         1     -0.00115956
         4         4         3         3         1         1     -0.01787573
         4         4         5         5         1         1     -0.01865372
         4         4         5         5         1         2      0.00160510
         4         4         5         5         1         3      0.00105353
         4         4         5         5         2         1      0.00160510
         4         4         5         5         2         2     -0.00164801
         4         4         5         5         2         3      0.00113044
         4         4         5         5         3         1      0.00105353
         4         4         5         5         3         2      0.00113044
         4         4         5         5         3         3     -0.00368609
         4         4         6         6         1         1     -0.02385322
         4         4         6         6         1         2      0.00234697
         4         4         6         6         2         1      0.00234697
         4         4         6         6         2         2     -0.00076388
         4         4         7         7         1         1     -0.25072483
         4         4         7         7         1         2      0.03235946
         4         4         7         7         2         1      0.03235946
         4         4         7         7         2         2     -0.01251700
         5         5         1         1         1         1     -0.01517116
         5         5         1         1         1         2     -0.00133004
         5         5         1         1         2         1     -0.00133004
         5         5         1         1         2         2     -0.00258048
         5         5         2         2         1         1     -0.00770865
         5         5         3         3         1         1     -0.00770865
         5         5         5         5         1         1     -0.02890015
         5         5         5         5         1         2      0.00647776
         5         5         5         5         1         3      0.00125348
         5         5         5         5         2         1      0.00647776
         5         5         5         5         2         2     -0.01318604
         5         5         5         5         2         3      0.00598183
         5         5         5         5         3         1      0.00125348
         5         5         5         5         3         2      0.00598183
         5         5         5         5         3         3     -0.00663256
         5         5         6         6         1         1     -0.04820925
         5         5         6         6         1         2      0.01165435
         5         5         6         6         2         1      0.01165435
         5         5         6         6         2         2     -0.00612937
         5         5         7         7         1         1     -0.04820925
         5         5         7         7         1         2      0.01165435
         5         5         7         7         2         1      0.01165435
         5         5         7         7         2         2     -0.00612937
         3         1         1         2         1         1      0.00563171
         3         1         1         2         2         1      0.00474191
         3         1         2         1         1         1      0.01119693
         3         1         2         1         1         2      0.01183561
         3         1         5         6         1         1     -0.03165805
         3         1         5         6         1         2      0.00858639
         3         1         5         6         2         1     -0.00099139
         3         1         5         6         2         2      0.00163333
         3         1         5         6         3         1      0.00203889
         3         1         5         6         3         2     -0.00381340
         3         1         6         5         1         1     -0.03218865
         3         1         6         5         1         2     -0.00019606
         3         1         6         5         1         3      0.00694765
         3         1         6         5         2         1      0.01461086
         3         1         6         5         2         2      0.00111359
         3         1         6         5         2         3     -0.00855124
         3         2         1         2         1         1     -0.00400228
         3         2         1         2         2         1      0.00019322
         3         2         2         1         1         1     -0.01527472
         3         2         2         1         1         2      0.00740404
         3         2         5         6         1         1     -0.03240935
         3         2         5         6         1         2      0.00518815
         3         2         5         6         2         1      0.01456151
         3         2         5         6         2         2     -0.00497570
         3         2         5         6         3         1      0.00238963
         3         2         5         6         3         2      0.00193782
         3         2         6         5         1         1     -0.06652906
         3         2         6         5         1         2      0.02490527
         3         2         6         5         1         3      0.00003034
         3         2         6         5         2         1      0.01420810
         3         2         6         5         2         2     -0.01487745
         3         2         6         5         2         3      0.00161960
         4         1         1         3         1         1      0.00563171
         4         1         1         3         2         1      0.00474191
         4         1         3         1         1         1      0.01119693
         4         1         3         1         1         2      0.01183561
         4         1         5         7         1         1     -0.03165805
         4         1         5         7         1         2      0.00858639
         4         1         5         7         2         1     -0.00099139
         4         1         5         7         2         2      0.00163333
         4         1         5         7         3         1      0.00203889
         4         1         5         7         3         2     -0.00381340
         4         1         7         5         1         1     -0.03218865
         4         1         7         5         1         2     -0.00019606
         4         1         7         5         1         3      0.00694765
         4         1         7         5         2         1      0.01461086
         4         1         7         5         2         2      0.00111359
         4         1         7         5         2         3     -0.00855124
         4         2         1         3         1         1     -0.00400228
         4         2         1         3         2         1      0.00019322
         4         2         3         1         1         1     -0.01527472
         4         2         3         1         1         2      0.00740404
         4         2         5         7         1         1     -0.03240935
         4         2         5         7         1         2      0.00518815
         4         2         5         7         2         1      0.01456151
         4         2         5         7         2         2     -0.00497570
         4         2         5         7         3         1      0.00238963
         4         2         5         7         3         2      0.00193782
         4         2         7         5         1         1     -0.06652906
         4         2         7         5         1         2      0.02490527
         4         2         7         5         1         3      0.00003034
         4         2         7         5         2         1      0.01420810
         4         2         7         5         2         2     -0.01487745
         4         2         7         5         2         3      0.00161960
         4         3         2         3         1         1     -0.00051064
         4         3         3         2         1         1     -0.01620554
         4         3         6         7         1         1     -0.10892560
         4         3         6         7         1         2      0.01204595
         4         3         6         7         2         1      0.01204595
         4         3         6         7         2         2     -0.00162787
         4         3         7         6         1         1     -0.11794600
         4         3         7         6         1         2      0.01796654
         4         3         7         6         2         1      0.01796654
         4         3         7         6         2         2     -0.01012524
         5         1         1         5         1         1      0.00488005
         5         1         1         5         1         2      0.00434811
         5         1         1         5         1         3     -0.00630678
         5         1         1         5         2         1      0.00925337
         5         1         1         5         2         2     -0.00271975
         5         1         1         5         2         3     -0.00421168
         5         1         2         6         1         1     -0.01333321
         5         1         2         6         1         2      0.00657865
         5         1         3         7         1         1     -0.01333321
         5         1         3         7         1         2      0.00657865
         5         1         5         1         1         1      0.00161851
         5         1         5         1         1         2      0.00883221
         5         1         5         1         2         1      0.00698507
         5         1         5         1         2         2      0.00035387
         5         1         5         1         3         1     -0.00569367
         5         1         5         1         3         2     -0.00693954
         5         1         6         2         1         1     -0.01127277
         5         1         6         2         2         1      0.00644225
         5         1         7         3         1         1     -0.01127277
         5         1         7         3         2         1      0.00644225
         5         2         1         5         1         1      0.01483748
         5         2         1         5         1         2     -0.02015819
         5         2         1         5         1         3      0.00415743
         5         2         1         5         2         1      0.00687579
         5         2         1         5         2         2     -0.00230123
         5         2         1         5         2         3     -0.00225063
         5         2         2         6         1         1      0.00799501
         5         2         2         6         1         2     -0.00293325
         5         2         3         7         1         1      0.00799501
         5         2         3         7         1         2     -0.00293325
         5         2         5         1         1         1      0.00342371
         5         2         5         1         1         2      0.00784628
         5         2         5         1         2         1     -0.01748373
         5         2         5         1         2         2      0.00308432
         5         2         5         1         3         1      0.00874444
         5         2         5         1         3         2     -0.00600464
         5         2         6         2         1         1      0.00820045
         5         2         6         2         2         1     -0.00327364
         5         2         7         3         1         1      0.00820045
         5         2         7         3         2         1     -0.00327364
         5         3         1         6         1         1      0.01765342
         5         3         1         6         1         2     -0.01353094
         5         3         1         6         2         1      0.00809142
         5         3         1         6         2         2     -0.00536494
         5         3         2         5         1         1     -0.00554907
         5         3         2         5         1         2     -0.00361611
         5         3         2         5         1         3      0.00436689
         5         3         5         2         1         1     -0.00618247
         5         3         5         2         2         1     -0.01095327
         5         3         5         2         3         1      0.01198425
         5         3         6         1         1         1      0.01085016
         5         3         6         1         1         2      0.00117713
         5         3         6         1         2         1     -0.00727341
         5         3         6         1         2         2     -0.00362284
         5         4         1         7         1         1      0.01765342
         5         4         1         7         1         2     -0.01353094
         5         4         1         7         2         1      0.00809142
         5         4         1         7         2         2     -0.00536494
         5         4         3         5         1         1     -0.00554907
         5         4         3         5         1         2     -0.00361611
         5         4         3         5         1         3      0.00436689
         5         4         5         3         1         1     -0.00618247
         5         4         5         3         2         1     -0.01095327
         5         4         5         3         3         1      0.01198425
         5         4         7         1         1         1      0.01085016
         5         4         7         1         1         2      0.00117713
         5         4         7         1         2         1     -0.00727341
         5         4         7         1         2         2     -0.00362284


 RESULTS
 =======

  Reference energy                   -108.560379433159
  CCD singlet pair energy              -0.281547439602
  CCD triplet pair energy              -0.062522577135
  CCD correlation energy               -0.344070016737

 !CCD total energy                   -108.904449449895

 Timing summary (sec):

 STEP                 CPU(USER)    SYS     CPU(TOT)    WALL
 CCSD iterations         0.04      0.02      0.06      0.06

 Program statistics:

 Available memory in ccsd:                39999100
 Min. memory needed in ccsd:                  2282
 Max. memory used in ccsd:                    2323
 Max. memory used in cckext:                 35450 (26 integral passes)



 **********************************************************************************************************************************
 DATASETS  * FILE   NREC   LENGTH (MB)   RECORD NAMES
              1      20       29.99       500      700      610      900      950      970     1000      129      960     1100   
                                          VAR     GEOM    BASINP   SYMINP    ZMAT    AOBASIS   BASIS     P2S    ABASIS      S 
                                         1400     1410     1200     1210     1080     1600     1650     1300     1700     1380   
                                           T        V       H0       H01     AOSYM     SMH    MOLCAS    ERIS     OPER     JKOP   

              3       5       14.77       500      610      700     1000     2100   
                                          VAR    BASINP    GEOM     BASIS     RHF  

 PROGRAMS   *        TOTAL      CCSD       INT   RESTART
 CPU TIMES  *         0.40      0.09      0.20      0.02
 REAL TIME  *         0.56 SEC
 DISK USED  *        49.44 MB
 **********************************************************************************************************************************
 Molecular orbitals read from record     2100.3  Type=RHF/CANONICAL (state 1.1)
 Occupation numbers read from record     2100.3  Type=RHF/RHF (state 1.1)
 Orbital energies read from record       2100.3  Type=RHF/CANONICAL (state 1.1)
 Redundancy group numbers read from rec  2100.3  Type=RHF/RHF (state 1.1)

 CCSD/6-31G energy=   -108.904449449895

            CCSD
   -108.90444945
 **********************************************************************************************************************************
 Molpro calculation terminated
