
 Primary working directories    : /scr/yuriaoto/job.023501/molpro.tdupR2MYO6
 Secondary working directories  : /scr/yuriaoto/job.023501/molpro.tdupR2MYO6
 Wavefunction directory         : /scr/yuriaoto/job.023501/
 Main file repository           : /scr/yuriaoto/job.023501/molpro.tdupR2MYO6/

 id        : yuriaoto

 Nodes             nprocs
 t-rex.ufabc.int.br    1

 Using customized tuning parameters: mindgm=8; mindgv=16; mindgc=1; mindgr=1; noblas=0; minvec=7
 default implementation of scratch files=df  


 Variables initialized (933), CPU time= 0.00 sec
 ***,
 memory,40,m
 gprint,orbital,basis,civector
 gthresh,thrprint=0,printci=0.0
 file,3,wfu.dat,old
 
 {ccsd,CC_NORM_MAX=20.0
 thresh,printci=0.0,ENERGY=1.0E-10,COEFF=1.0E-12
 print,ref=1
 core,0
 wf,14,1,0;
 }
 
 Commands  initialized (760), CPU time= 0.01 sec, 617 directives.
 Default parameters read. Elapsed time= 0.05 sec

 Checking input...
 Passed
1


                                         ***  PROGRAM SYSTEM MOLPRO  ***
                                       Copyright, TTI GmbH Stuttgart, 2015
                                    Version 2019.2 linked Abr  7 2019 15:10:35


 **********************************************************************************************************************************
 LABEL *                                                                                 
  64 bit serial version                                                                  DATE: 02-Jun-20          TIME: 00:59:33  
 **********************************************************************************************************************************

 SHA1:             3a8a58c585c929645742fb5a1b7541a4ad1da699
 **********************************************************************************************************************************


 THRESHOLDS:

 ZERO    =  1.00D-12  ONEINT  =  1.00D-12  TWOINT  =  1.00D-11  PREFAC  =  1.00D-14  XXXXXX  =  1.00D-09  EORDER  =  1.00D-04
 ENERGY  =  0.00D+00  ETEST   =  0.00D+00  EDENS   =  0.00D+00  THRDEDEF=  1.00D-06  GRADIENT=  1.00D-02  STEP    =  1.00D-03
 ORBITAL =  1.00D-05  CIVEC   =  1.00D-05  COEFF   =  1.00D-04  PRINTCI =  0.00D+00  PUNCHCI =  9.90D+01  OPTGRAD =  3.00D-04
 OPTENERG=  1.00D-06  OPTSTEP =  3.00D-04  THRGRAD =  1.00D-10  COMPRESS=  1.00D-11  VARMIN  =  1.00D-07  VARMAX  =  1.00D-03
 THRDOUB =  0.00D+00  THRDIV  =  1.00D-05  THRRED  =  1.00D-07  THRPSP  =  1.00D+00  THRDC   =  1.00D-10  THRCS   =  1.00D-10
 THRNRM  =  1.00D-08  THREQ   =  0.00D+00  THRDE   =  1.00D+00  THRREF  =  1.00D-05  SPARFAC =  1.00D+00  THRDLP  =  1.00D-07
 THRDIA  =  1.00D-10  THRDLS  =  1.00D-07  THRGPS  =  0.00D+00  THRKEX  =  0.00D+00  THRDIS  =  2.00D-01  THRVAR  =  1.00D-10
 THRLOC  =  1.00D-06  THRGAP  =  1.00D-06  THRLOCT = -1.00D+00  THRGAPT = -1.00D+00  THRORB  =  1.00D-06  THRMLTP =  0.00D+00
 THRCPQCI=  1.00D-10  KEXTA   =  0.00D+00  THRCOARS=  0.00D+00  SYMTOL  =  1.00D-06  GRADTOL =  1.00D-06  THROVL  =  1.00D-08
 THRORTH =  1.00D-08  GRID    =  1.00D-06  GRIDMAX =  1.00D-03  DTMAX   =  0.00D+00  THROCCDE=  1.00D-01  THROCCDE=  1.00D-01
 THRPRINT=  0.00D+00


 Variable memory set to   40000000 words,  buffer space 



 Permanent file  3  wfu.dat  assigned.  Implementation=df    Size= 14.08 MB


 PROGRAM * RESTART 


 Reading variables from file 3

 _FNUC           =      0.00000000
 _BASIS          =    6-31G
 _NELEC          =     14.00000000
 _PROGRAM        =    RHF-SCF
 _DMX_SCF        =      0.00000000
 _DMY_SCF        =      0.00000000
 _DMZ_SCF        =      0.00000000
 _HOMO           =      1.20000000
 _EHOMO          =     -0.47733994
 _LUMO           =      1.60000000
 _ELUMO          =     -0.02720870
 _ENERGY         =   -108.56037943
 _ENERGY_METHOD  =    RHF
 _ENERGY_BASIS   =    6-31G
 _ENUC           =     16.33333333
 _EPS1(1:5)      =    -15.81771777    -1.22408989    -0.55476884     0.90356566     1.08163906
 _EPS2(1:2)      =     -0.47733994     0.86881343
 _EPS3(1:2)      =     -0.47733994     0.86881343
 _EPS5(1:5)      =    -15.81713369    -0.91208671     0.20403463     0.84931301     1.30241938
 _EPS6(1:2)      =     -0.02720870     0.95746624
 _EPS7(1:2)      =     -0.02720870     0.95746624
 _IPROC_MPP      =      0.00000000
 _IPROC_MPPX     =      0.00000000
 _ORBITAL        =   2100.30000000
 _STATUS         =      1.00000000
 _DATE           =    20-Mar-20
 _LASTORB        =    RHF
 _OUTPUT         =    /scr/yuriaoto/job.022805/RHF.xml
 _PGROUP         =    D2h 
 _TIME           =    18:50:32
 R               =      3.00000000

 Geometry written to block  1 of record 700


 **********************************************************************************************************************************
 DATASETS  * FILE   NREC   LENGTH (MB)   RECORD NAMES
              3       5       14.77       500      610      700     1000     2100   
                                          VAR    BASINP    GEOM     BASIS     RHF  

 PROGRAMS   *        TOTAL   RESTART
 CPU TIMES  *         0.12      0.02
 REAL TIME  *         0.15 SEC
 DISK USED  *        26.84 MB
 **********************************************************************************************************************************


 Recomputing integrals since basis changed


 Using spherical harmonics

 Library entry N      S 6-31G                selected for orbital group  1
 Library entry N      P 6-31G                selected for orbital group  1


 PROGRAM * SEWARD (Integral evaluation for generally contracted gaussian basis sets)     Author: Roland Lindh, 1990

 Geometry written to block  1 of record 700

 Orientation using atomic masses  
 Molecule type: Linear
 User-specified symmetry elements: X,Y,Z
 Symmetry elements: X,Y,Z
 Rotational constants:      28.6329822     28.6329822      0.0000000 GHz  (calculated with average atomic masses)

 Point group  D2h 



 ATOMIC COORDINATES

 NR  ATOM    CHARGE       X              Y              Z

   1  N1      7.00    0.000000000    0.000000000   -1.500000000
   2  N2      7.00    0.000000000    0.000000000    1.500000000

 Bond lengths in Bohr (Angstrom)

 1-2  3.000000000
     ( 1.587531633)


 BASIS DATA

   Nr Sym  Nuc  Type         Exponents   Contraction coefficients

    1.1 Ag    1  1s        4173.511500     0.001835
              2  1s         627.457910     0.013995
                            142.902090     0.068587
                             40.234329     0.232241
                             12.820213     0.469070
                              4.390437     0.360455
    2.1 Ag    1  1s          11.626362    -0.114961
              2  1s           2.716280    -0.169117
                              0.772218     1.145852
    3.1 Ag    1  1s           0.212032     1.000000
              2  1s    
    4.1 Ag    1  2pz         11.626362     0.067580
              2 -2pz          2.716280     0.323907
                              0.772218     0.740895
    5.1 Ag    1  2pz          0.212032     1.000000
              2 -2pz   
    1.2 B3u   1  2px         11.626362     0.067580
              2  2px          2.716280     0.323907
                              0.772218     0.740895
    2.2 B3u   1  2px          0.212032     1.000000
              2  2px   
    1.3 B2u   1  2py         11.626362     0.067580
              2  2py          2.716280     0.323907
                              0.772218     0.740895
    2.3 B2u   1  2py          0.212032     1.000000
              2  2py   
    1.5 B1u   1  1s        4173.511500     0.001835
              2 -1s         627.457910     0.013995
                            142.902090     0.068587
                             40.234329     0.232241
                             12.820213     0.469070
                              4.390437     0.360455
    2.5 B1u   1  1s          11.626362    -0.114961
              2 -1s           2.716280    -0.169117
                              0.772218     1.145852
    3.5 B1u   1  1s           0.212032     1.000000
              2 -1s    
    4.5 B1u   1  2pz         11.626362     0.067580
              2  2pz          2.716280     0.323907
                              0.772218     0.740895
    5.5 B1u   1  2pz          0.212032     1.000000
              2  2pz   
    1.6 B2g   1  2px         11.626362     0.067580
              2 -2px          2.716280     0.323907
                              0.772218     0.740895
    2.6 B2g   1  2px          0.212032     1.000000
              2 -2px   
    1.7 B3g   1  2py         11.626362     0.067580
              2 -2py          2.716280     0.323907
                              0.772218     0.740895
    2.7 B3g   1  2py          0.212032     1.000000
              2 -2py   

 NUCLEAR CHARGE:                   14
 NUMBER OF PRIMITIVE AOS:          44
 NUMBER OF SYMMETRY AOS:           44
 NUMBER OF CONTRACTIONS:           18   (    5Ag  +    2B3u +    2B2u +    0B1g +    5B1u +    2B2g +    2B3g +    0Au  )
 NUMBER OF CORE ORBITALS:           2   (    1Ag  +    0B3u +    0B2u +    0B1g +    1B1u +    0B2g +    0B3g +    0Au  )
 NUMBER OF VALENCE ORBITALS:        8   (    2Ag  +    1B3u +    1B2u +    0B1g +    2B1u +    1B2g +    1B3g +    0Au  )


 NUCLEAR REPULSION ENERGY   16.33333333

 Eigenvalues of metric

         1 0.238E+00 0.415E+00 0.926E+00 0.155E+01 0.276E+01
         2 0.544E+00 0.186E+01
         3 0.544E+00 0.186E+01
         5 0.420E-01 0.342E+00 0.806E+00 0.100E+01 0.192E+01
         6 0.352E+00 0.124E+01
         7 0.352E+00 0.124E+01


 Contracted 2-electron integrals neglected if value below      1.0D-11
 AO integral compression algorithm  1   Integral accuracy      1.0D-11

     0.262 MB (compressed) written to integral file (100.0%)


 NUMBER OF SORTED TWO-ELECTRON INTEGRALS:       2829.     BUFFER LENGTH:  32768
 NUMBER OF SEGMENTS:   1  SEGMENT LENGTH:       2829      RECORD LENGTH: 524288

 Memory used in sort:       0.56 MW

 SORT1 READ        8184. AND WROTE        2829. INTEGRALS IN      1 RECORDS. CPU TIME:     0.00 SEC, REAL TIME:     0.01 SEC
 SORT2 READ        2829. AND WROTE        2829. INTEGRALS IN      1 RECORDS. CPU TIME:     0.01 SEC, REAL TIME:     0.01 SEC

 FILE SIZES:   FILE 1:    30.2 MBYTE,  FILE 4:     4.2 MBYTE,   TOTAL:     34.4 MBYTE

 OPERATOR DM      FOR CENTER  0  COORDINATES:    0.000000    0.000000    0.000000


 **********************************************************************************************************************************
 DATASETS  * FILE   NREC   LENGTH (MB)   RECORD NAMES
              1      19       29.97       500      700      610      900      950      970     1000      129      960     1100   
                                          VAR     GEOM    BASINP   SYMINP    ZMAT    AOBASIS   BASIS     P2S    ABASIS      S 
                                         1400     1410     1200     1210     1080     1600     1650     1300     1700   
                                           T        V       H0       H01     AOSYM     SMH    MOLCAS    ERIS     OPER   

              3       5       14.77       500      610      700     1000     2100   
                                          VAR    BASINP    GEOM     BASIS     RHF  

 PROGRAMS   *        TOTAL       INT   RESTART
 CPU TIMES  *         0.27      0.15      0.02
 REAL TIME  *         0.45 SEC
 DISK USED  *        49.44 MB
 **********************************************************************************************************************************


 PROGRAM * CCSD (Closed-shell coupled cluster)     Authors: C. Hampel, H.-J. Werner, 1991, M. Deegan, P.J. Knowles, 1992


 Input parameters for THRESH:

 ENERGY   =    1.00D-10
 COEFF    =    1.00D-12
 PRINTCI  =    0.000000
 THRPRINT =    0.000000

 Convergence thresholds:  THRVAR = 1.00D-24  THRDEN = 1.00D-10

 Number of closed-shell orbitals:   7 (   3   1   1   0   2   0   0 )
 Number of external orbitals:      11 (   2   1   1   0   3   2   2 )

 Molecular orbitals read from record     2100.3  Type=RHF/CANONICAL (state 1.1)

 Number of N-1 electron functions:               7
 Number of N-2 electron functions:              28
 Number of singly external CSFs:                14
 Number of doubly external CSFs:               493
 Total number of CSFs:                         508

 Length of J-op  integral file:               0.00 MB
 Length of K-op  integral file:               0.04 MB
 Length of 3-ext integral record:             0.00 MB

 Integral transformation finished. Total CPU:   0.00 sec, npass=  1  Memory used:   0.07 MW

 Reference energy:                   -108.56037943

 MP2 singlet pair energy:              -0.25764248
 MP2 triplet pair energy:              -0.21014109
 MP2 correlation energy:               -0.46778357
 MP2 total energy:                   -109.02816300

 SCS-MP2 correlation energy:           -0.43992543   (PS=  1.200000  PT=  0.333333)
 SCS-MP2 total energy:               -109.00030486

 ITER.      SQ.NORM     CORR.ENERGY   TOTAL ENERGY   ENERGY CHANGE        DEN1      VAR(S)    VAR(P)  DIIS     TIME  TIME/IT
   1      1.13877006    -0.39471519  -108.95509463     0.07306838     0.20001226  0.19D-01  0.90D-01  1  1     0.02     0.01
   2      1.19471159    -0.34660726  -108.90698669     0.04810793    -0.06365585  0.37D-03  0.33D-02  2  2     0.02     0.01
   3      1.21948897    -0.34636839  -108.90674783     0.00023887    -0.00634043  0.26D-04  0.11D-02  3  3     0.03     0.01
   4      1.25923275    -0.35373873  -108.91411816    -0.00737033    -0.01024709  0.38D-04  0.35D-03  4  4     0.03     0.01
   5      1.29511176    -0.35508001  -108.91545944    -0.00134128    -0.00573838  0.20D-05  0.35D-04  5  5     0.04     0.01
   6      1.30351610    -0.35494890  -108.91532833     0.00013111    -0.00094201  0.39D-06  0.46D-05  6  6     0.04     0.01
   7      1.30659677    -0.35516158  -108.91554102    -0.00021268    -0.00046051  0.16D-07  0.48D-06  6  1     0.05     0.01
   8      1.30652625    -0.35516589  -108.91554533    -0.00000431     0.00002863  0.76D-08  0.73D-07  6  2     0.05     0.01
   9      1.30679954    -0.35516534  -108.91554478     0.00000055    -0.00004609  0.10D-08  0.46D-08  6  4     0.05     0.01
  10      1.30679931    -0.35517069  -108.91555012    -0.00000534     0.00000061  0.40D-10  0.43D-09  6  3     0.06     0.01
  11      1.30678056    -0.35516872  -108.91554816     0.00000196     0.00000376  0.15D-10  0.46D-10  6  5     0.06     0.01
  12      1.30678232    -0.35516902  -108.91554846    -0.00000030    -0.00000049  0.39D-12  0.79D-11  6  6     0.07     0.01
  13      1.30678148    -0.35516894  -108.91554838     0.00000008     0.00000035  0.10D-12  0.13D-11  6  1     0.07     0.01
  14      1.30678232    -0.35516896  -108.91554840    -0.00000002    -0.00000023  0.21D-13  0.25D-12  6  2     0.07     0.01
  15      1.30678205    -0.35516895  -108.91554838     0.00000001     0.00000008  0.28D-14  0.39D-13  6  4     0.08     0.01
  16      1.30678197    -0.35516895  -108.91554838     0.00000000    -0.00000000  0.86D-15  0.63D-14  6  5     0.08     0.01
  17      1.30678185    -0.35516894  -108.91554837     0.00000000     0.00000002  0.22D-16  0.43D-15  6  3     0.08     0.00
  18      1.30678181    -0.35516894  -108.91554837     0.00000000     0.00000001  0.51D-17  0.78D-16  6  6     0.09     0.00
  19      1.30678179    -0.35516894  -108.91554837     0.00000000     0.00000000  0.13D-17  0.69D-17  6  1     0.09     0.00
  20      1.30678179    -0.35516894  -108.91554837     0.00000000     0.00000000  0.11D-19  0.64D-18  6  2     0.10     0.00
  21      1.30678179    -0.35516894  -108.91554837    -0.00000000    -0.00000000  0.11D-19  0.10D-18  6  4     0.10     0.00
  22      1.30678179    -0.35516894  -108.91554837     0.00000000     0.00000000  0.17D-20  0.73D-20  6  5     0.10     0.00
  23      1.30678179    -0.35516894  -108.91554837    -0.00000000    -0.00000000  0.45D-22  0.10D-20  6  3     0.11     0.00
  24      1.30678179    -0.35516894  -108.91554837    -0.00000000     0.00000000  0.25D-22  0.24D-21  6  6     0.11     0.00
  25      1.30678179    -0.35516894  -108.91554837    -0.00000000    -0.00000000  0.40D-24  0.70D-23  6  1     0.11     0.00
  26      1.30678179    -0.35516894  -108.91554837    -0.00000000    -0.00000000  0.71D-25  0.12D-23  6  4     0.12     0.00
  27      1.30678179    -0.35516894  -108.91554837     0.00000000     0.00000000  0.51D-26  0.15D-24  6  2     0.12     0.00

 Norm of t1 vector:      0.11679502      S-energy:    -0.00000000      T1 diagnostic:  0.02207218
                                                                       D1 diagnostic:  0.05290451

 Singles amplitudes (print threshold =  0.000E+00):

         I         SYM. A    A   T(IA)

         1         1         1     -0.00034981
         1         1         2     -0.00016934
         2         1         1      0.00853947
         2         1         2     -0.00309701
         3         1         1     -0.00292475
         3         1         2     -0.02368981
         4         2         1      0.05290451
         5         3         1      0.05290451
         6         5         1      0.00009692
         6         5         2      0.00020295
         6         5         3     -0.00026271
         7         5         1      0.02170300
         7         5         2     -0.00990428
         7         5         3      0.00105022

 Doubles amplitudes (print threshold =  0.000E+00):

         I         J         SYM. A    SYM. B    A         B      T(IJ, AB)

         1         1         1         1         1         1     -0.00060218
         1         1         1         1         1         2     -0.00007330
         1         1         1         1         2         1     -0.00007330
         1         1         1         1         2         2     -0.00061716
         1         1         2         2         1         1     -0.00057195
         1         1         3         3         1         1     -0.00057195
         1         1         5         5         1         1     -0.00050527
         1         1         5         5         1         2      0.00034061
         1         1         5         5         1         3      0.00035682
         1         1         5         5         2         1      0.00034061
         1         1         5         5         2         2     -0.00057806
         1         1         5         5         2         3      0.00006265
         1         1         5         5         3         1      0.00035682
         1         1         5         5         3         2      0.00006265
         1         1         5         5         3         3     -0.00042697
         1         1         6         6         1         1     -0.00024817
         1         1         6         6         1         2      0.00045810
         1         1         6         6         2         1      0.00045810
         1         1         6         6         2         2     -0.00056346
         1         1         7         7         1         1     -0.00024817
         1         1         7         7         1         2      0.00045810
         1         1         7         7         2         1      0.00045810
         1         1         7         7         2         2     -0.00056346
         2         1         1         1         1         1      0.00003613
         2         1         1         1         1         2      0.00024352
         2         1         1         1         2         1      0.00044504
         2         1         1         1         2         2     -0.00021548
         2         1         2         2         1         1     -0.00052688
         2         1         3         3         1         1     -0.00052688
         2         1         5         5         1         1     -0.00061731
         2         1         5         5         1         2      0.00076674
         2         1         5         5         1         3      0.00006500
         2         1         5         5         2         1      0.00045768
         2         1         5         5         2         2     -0.00048368
         2         1         5         5         2         3     -0.00011774
         2         1         5         5         3         1      0.00013451
         2         1         5         5         3         2     -0.00027941
         2         1         5         5         3         3      0.00010567
         2         1         6         6         1         1     -0.00055742
         2         1         6         6         1         2      0.00079079
         2         1         6         6         2         1      0.00048476
         2         1         6         6         2         2     -0.00054952
         2         1         7         7         1         1     -0.00055742
         2         1         7         7         1         2      0.00079079
         2         1         7         7         2         1      0.00048476
         2         1         7         7         2         2     -0.00054952
         2         2         1         1         1         1     -0.00490801
         2         2         1         1         1         2     -0.00422488
         2         2         1         1         2         1     -0.00422488
         2         2         1         1         2         2     -0.01043493
         2         2         2         2         1         1     -0.00586069
         2         2         3         3         1         1     -0.00586069
         2         2         5         5         1         1     -0.03104531
         2         2         5         5         1         2      0.00762889
         2         2         5         5         1         3      0.01030422
         2         2         5         5         2         1      0.00762889
         2         2         5         5         2         2     -0.00433022
         2         2         5         5         2         3     -0.00189762
         2         2         5         5         3         1      0.01030422
         2         2         5         5         3         2     -0.00189762
         2         2         5         5         3         3     -0.00693986
         2         2         6         6         1         1     -0.01498649
         2         2         6         6         1         2      0.00754919
         2         2         6         6         2         1      0.00754919
         2         2         6         6         2         2     -0.00493178
         2         2         7         7         1         1     -0.01498649
         2         2         7         7         1         2      0.00754919
         2         2         7         7         2         1      0.00754919
         2         2         7         7         2         2     -0.00493178
         3         1         1         1         1         1      0.00011136
         3         1         1         1         1         2     -0.00047362
         3         1         1         1         2         1      0.00029568
         3         1         1         1         2         2     -0.00011317
         3         1         2         2         1         1      0.00018834
         3         1         3         3         1         1      0.00018834
         3         1         5         5         1         1     -0.00004748
         3         1         5         5         1         2     -0.00006049
         3         1         5         5         1         3      0.00001489
         3         1         5         5         2         1     -0.00038197
         3         1         5         5         2         2      0.00023519
         3         1         5         5         2         3      0.00020625
         3         1         5         5         3         1      0.00057027
         3         1         5         5         3         2     -0.00052474
         3         1         5         5         3         3     -0.00009851
         3         1         6         6         1         1      0.00016399
         3         1         6         6         1         2     -0.00025347
         3         1         6         6         2         1     -0.00006849
         3         1         6         6         2         2      0.00010481
         3         1         7         7         1         1      0.00016399
         3         1         7         7         1         2     -0.00025347
         3         1         7         7         2         1     -0.00006849
         3         1         7         7         2         2      0.00010481
         3         2         1         1         1         1      0.01006273
         3         2         1         1         1         2      0.00361142
         3         2         1         1         2         1     -0.00426975
         3         2         1         1         2         2     -0.00738267
         3         2         2         2         1         1      0.00217668
         3         2         3         3         1         1      0.00217668
         3         2         5         5         1         1     -0.03067171
         3         2         5         5         1         2      0.00590111
         3         2         5         5         1         3      0.01191351
         3         2         5         5         2         1      0.01414265
         3         2         5         5         2         2      0.00313333
         3         2         5         5         2         3     -0.00935087
         3         2         5         5         3         1      0.01075742
         3         2         5         5         3         2     -0.00516804
         3         2         5         5         3         3     -0.00099500
         3         2         6         6         1         1      0.00711129
         3         2         6         6         1         2     -0.00110559
         3         2         6         6         2         1      0.00075737
         3         2         6         6         2         2      0.00091271
         3         2         7         7         1         1      0.00711129
         3         2         7         7         1         2     -0.00110559
         3         2         7         7         2         1      0.00075737
         3         2         7         7         2         2      0.00091271
         3         3         1         1         1         1     -0.02155760
         3         3         1         1         1         2      0.00715234
         3         3         1         1         2         1      0.00715234
         3         3         1         1         2         2     -0.00499222
         3         3         2         2         1         1     -0.00243017
         3         3         3         3         1         1     -0.00243017
         3         3         5         5         1         1     -0.09086989
         3         3         5         5         1         2      0.03085220
         3         3         5         5         1         3     -0.00215886
         3         3         5         5         2         1      0.03085220
         3         3         5         5         2         2     -0.02900366
         3         3         5         5         2         3      0.00356346
         3         3         5         5         3         1     -0.00215886
         3         3         5         5         3         2      0.00356346
         3         3         5         5         3         3     -0.00346353
         3         3         6         6         1         1     -0.02391540
         3         3         6         6         1         2      0.00293960
         3         3         6         6         2         1      0.00293960
         3         3         6         6         2         2     -0.00221375
         3         3         7         7         1         1     -0.02391540
         3         3         7         7         1         2      0.00293960
         3         3         7         7         2         1      0.00293960
         3         3         7         7         2         2     -0.00221375
         4         4         1         1         1         1     -0.00467448
         4         4         1         1         1         2     -0.00355476
         4         4         1         1         2         1     -0.00355476
         4         4         1         1         2         2     -0.00631324
         4         4         2         2         1         1     -0.01812793
         4         4         3         3         1         1     -0.00119273
         4         4         5         5         1         1     -0.01885941
         4         4         5         5         1         2      0.00188465
         4         4         5         5         1         3      0.00145784
         4         4         5         5         2         1      0.00188465
         4         4         5         5         2         2     -0.00188637
         4         4         5         5         2         3      0.00109197
         4         4         5         5         3         1      0.00145784
         4         4         5         5         3         2      0.00109197
         4         4         5         5         3         3     -0.00347466
         4         4         6         6         1         1     -0.26174587
         4         4         6         6         1         2      0.03703572
         4         4         6         6         2         1      0.03703572
         4         4         6         6         2         2     -0.01389318
         4         4         7         7         1         1     -0.02483194
         4         4         7         7         1         2      0.00298113
         4         4         7         7         2         1      0.00298113
         4         4         7         7         2         2     -0.00086992
         5         5         1         1         1         1     -0.00467448
         5         5         1         1         1         2     -0.00355476
         5         5         1         1         2         1     -0.00355476
         5         5         1         1         2         2     -0.00631324
         5         5         2         2         1         1     -0.00119273
         5         5         3         3         1         1     -0.01812793
         5         5         5         5         1         1     -0.01885941
         5         5         5         5         1         2      0.00188465
         5         5         5         5         1         3      0.00145784
         5         5         5         5         2         1      0.00188465
         5         5         5         5         2         2     -0.00188637
         5         5         5         5         2         3      0.00109197
         5         5         5         5         3         1      0.00145784
         5         5         5         5         3         2      0.00109197
         5         5         5         5         3         3     -0.00347466
         5         5         6         6         1         1     -0.02483194
         5         5         6         6         1         2      0.00298113
         5         5         6         6         2         1      0.00298113
         5         5         6         6         2         2     -0.00086992
         5         5         7         7         1         1     -0.26174587
         5         5         7         7         1         2      0.03703572
         5         5         7         7         2         1      0.03703572
         5         5         7         7         2         2     -0.01389318
         6         6         1         1         1         1     -0.00059923
         6         6         1         1         1         2     -0.00007870
         6         6         1         1         2         1     -0.00007870
         6         6         1         1         2         2     -0.00061097
         6         6         2         2         1         1     -0.00056600
         6         6         3         3         1         1     -0.00056600
         6         6         5         5         1         1     -0.00051674
         6         6         5         5         1         2      0.00035208
         6         6         5         5         1         3      0.00035833
         6         6         5         5         2         1      0.00035208
         6         6         5         5         2         2     -0.00058929
         6         6         5         5         2         3      0.00006044
         6         6         5         5         3         1      0.00035833
         6         6         5         5         3         2      0.00006044
         6         6         5         5         3         3     -0.00042689
         6         6         6         6         1         1     -0.00025502
         6         6         6         6         1         2      0.00046382
         6         6         6         6         2         1      0.00046382
         6         6         6         6         2         2     -0.00056938
         6         6         7         7         1         1     -0.00025502
         6         6         7         7         1         2      0.00046382
         6         6         7         7         2         1      0.00046382
         6         6         7         7         2         2     -0.00056938
         7         6         1         1         1         1     -0.00008206
         7         6         1         1         1         2      0.00046772
         7         6         1         1         2         1      0.00026503
         7         6         1         1         2         2     -0.00015247
         7         6         2         2         1         1     -0.00062136
         7         6         3         3         1         1     -0.00062136
         7         6         5         5         1         1     -0.00067645
         7         6         5         5         1         2      0.00087063
         7         6         5         5         1         3      0.00006801
         7         6         5         5         2         1      0.00063385
         7         6         5         5         2         2     -0.00056642
         7         6         5         5         2         3     -0.00021834
         7         6         5         5         3         1     -0.00011586
         7         6         5         5         3         2     -0.00007473
         7         6         5         5         3         3      0.00016455
         7         6         6         6         1         1     -0.00069661
         7         6         6         6         1         2      0.00094201
         7         6         6         6         2         1      0.00050383
         7         6         6         6         2         2     -0.00058312
         7         6         7         7         1         1     -0.00069661
         7         6         7         7         1         2      0.00094201
         7         6         7         7         2         1      0.00050383
         7         6         7         7         2         2     -0.00058312
         7         7         1         1         1         1     -0.01509122
         7         7         1         1         1         2     -0.00195903
         7         7         1         1         2         1     -0.00195903
         7         7         1         1         2         2     -0.00293829
         7         7         2         2         1         1     -0.00665589
         7         7         3         3         1         1     -0.00665589
         7         7         5         5         1         1     -0.02997016
         7         7         5         5         1         2      0.00659521
         7         7         5         5         1         3      0.00165549
         7         7         5         5         2         1      0.00659521
         7         7         5         5         2         2     -0.01283735
         7         7         5         5         2         3      0.00578854
         7         7         5         5         3         1      0.00165549
         7         7         5         5         3         2      0.00578854
         7         7         5         5         3         3     -0.00689499
         7         7         6         6         1         1     -0.04794468
         7         7         6         6         1         2      0.01131285
         7         7         6         6         2         1      0.01131285
         7         7         6         6         2         2     -0.00610683
         7         7         7         7         1         1     -0.04794468
         7         7         7         7         1         2      0.01131285
         7         7         7         7         2         1      0.01131285
         7         7         7         7         2         2     -0.00610683
         4         1         1         2         1         1      0.00040402
         4         1         1         2         2         1      0.00024662
         4         1         2         1         1         1     -0.00020773
         4         1         2         1         1         2     -0.00013682
         4         1         5         6         1         1     -0.00047789
         4         1         5         6         1         2      0.00035432
         4         1         5         6         2         1     -0.00023410
         4         1         5         6         2         2      0.00018668
         4         1         5         6         3         1      0.00044455
         4         1         5         6         3         2     -0.00034956
         4         1         6         5         1         1     -0.00003307
         4         1         6         5         1         2     -0.00014554
         4         1         6         5         1         3      0.00007320
         4         1         6         5         2         1     -0.00006218
         4         1         6         5         2         2     -0.00008535
         4         1         6         5         2         3      0.00016202
         4         2         1         2         1         1      0.00567977
         4         2         1         2         2         1      0.00501242
         4         2         2         1         1         1      0.01117037
         4         2         2         1         1         2      0.01181639
         4         2         5         6         1         1     -0.03150104
         4         2         5         6         1         2      0.00867661
         4         2         5         6         2         1     -0.00187331
         4         2         5         6         2         2      0.00176283
         4         2         5         6         3         1      0.00287612
         4         2         5         6         3         2     -0.00402138
         4         2         6         5         1         1     -0.03168491
         4         2         6         5         1         2     -0.00061532
         4         2         6         5         1         3      0.00743913
         4         2         6         5         2         1      0.01499656
         4         2         6         5         2         2      0.00117577
         4         2         6         5         2         3     -0.00887637
         4         3         1         2         1         1     -0.00411731
         4         3         1         2         2         1     -0.00001206
         4         3         2         1         1         1     -0.01521036
         4         3         2         1         1         2      0.00712431
         4         3         5         6         1         1     -0.03553970
         4         3         5         6         1         2      0.00592100
         4         3         5         6         2         1      0.01605526
         4         3         5         6         2         2     -0.00515918
         4         3         5         6         3         1      0.00220356
         4         3         5         6         3         2      0.00192984
         4         3         6         5         1         1     -0.06928673
         4         3         6         5         1         2      0.02638478
         4         3         6         5         1         3      0.00035659
         4         3         6         5         2         1      0.01613155
         4         3         6         5         2         2     -0.01570503
         4         3         6         5         2         3      0.00151657
         5         1         1         3         1         1      0.00040402
         5         1         1         3         2         1      0.00024662
         5         1         3         1         1         1     -0.00020773
         5         1         3         1         1         2     -0.00013682
         5         1         5         7         1         1     -0.00047789
         5         1         5         7         1         2      0.00035432
         5         1         5         7         2         1     -0.00023410
         5         1         5         7         2         2      0.00018668
         5         1         5         7         3         1      0.00044455
         5         1         5         7         3         2     -0.00034956
         5         1         7         5         1         1     -0.00003307
         5         1         7         5         1         2     -0.00014554
         5         1         7         5         1         3      0.00007320
         5         1         7         5         2         1     -0.00006218
         5         1         7         5         2         2     -0.00008535
         5         1         7         5         2         3      0.00016202
         5         2         1         3         1         1      0.00567977
         5         2         1         3         2         1      0.00501242
         5         2         3         1         1         1      0.01117037
         5         2         3         1         1         2      0.01181639
         5         2         5         7         1         1     -0.03150104
         5         2         5         7         1         2      0.00867661
         5         2         5         7         2         1     -0.00187331
         5         2         5         7         2         2      0.00176283
         5         2         5         7         3         1      0.00287612
         5         2         5         7         3         2     -0.00402138
         5         2         7         5         1         1     -0.03168491
         5         2         7         5         1         2     -0.00061532
         5         2         7         5         1         3      0.00743913
         5         2         7         5         2         1      0.01499656
         5         2         7         5         2         2      0.00117577
         5         2         7         5         2         3     -0.00887637
         5         3         1         3         1         1     -0.00411731
         5         3         1         3         2         1     -0.00001206
         5         3         3         1         1         1     -0.01521036
         5         3         3         1         1         2      0.00712431
         5         3         5         7         1         1     -0.03553970
         5         3         5         7         1         2      0.00592100
         5         3         5         7         2         1      0.01605526
         5         3         5         7         2         2     -0.00515918
         5         3         5         7         3         1      0.00220356
         5         3         5         7         3         2      0.00192984
         5         3         7         5         1         1     -0.06928673
         5         3         7         5         1         2      0.02638478
         5         3         7         5         1         3      0.00035659
         5         3         7         5         2         1      0.01613155
         5         3         7         5         2         2     -0.01570503
         5         3         7         5         2         3      0.00151657
         5         4         2         3         1         1     -0.00076353
         5         4         3         2         1         1     -0.01617166
         5         4         6         7         1         1     -0.11502555
         5         4         6         7         1         2      0.01349281
         5         4         6         7         2         1      0.01349281
         5         4         6         7         2         2     -0.00180524
         5         4         7         6         1         1     -0.12188839
         5         4         7         6         1         2      0.02056177
         5         4         7         6         2         1      0.02056177
         5         4         7         6         2         2     -0.01121802
         6         1         1         5         1         1     -0.00000854
         6         1         1         5         1         2      0.00047772
         6         1         1         5         1         3     -0.00035316
         6         1         1         5         2         1      0.00059882
         6         1         1         5         2         2     -0.00029542
         6         1         1         5         2         3     -0.00041514
         6         1         2         6         1         1     -0.00046955
         6         1         2         6         1         2      0.00057014
         6         1         3         7         1         1     -0.00046955
         6         1         3         7         1         2      0.00057014
         6         1         5         1         1         1     -0.00001442
         6         1         5         1         1         2      0.00060776
         6         1         5         1         2         1      0.00048430
         6         1         5         1         2         2     -0.00030404
         6         1         5         1         3         1     -0.00035253
         6         1         5         1         3         2     -0.00041721
         6         1         6         2         1         1     -0.00047522
         6         1         6         2         2         1      0.00057613
         6         1         7         3         1         1     -0.00047522
         6         1         7         3         2         1      0.00057613
         6         2         1         5         1         1     -0.00052559
         6         2         1         5         1         2      0.00028122
         6         2         1         5         1         3      0.00027800
         6         2         1         5         2         1      0.00052749
         6         2         1         5         2         2     -0.00041703
         6         2         1         5         2         3     -0.00004018
         6         2         2         6         1         1     -0.00083073
         6         2         2         6         1         2      0.00056302
         6         2         3         7         1         1     -0.00083073
         6         2         3         7         1         2      0.00056302
         6         2         5         1         1         1     -0.00021418
         6         2         5         1         1         2      0.00036104
         6         2         5         1         2         1      0.00012476
         6         2         5         1         2         2     -0.00053603
         6         2         5         1         3         1      0.00015579
         6         2         5         1         3         2      0.00007247
         6         2         6         2         1         1     -0.00049414
         6         2         6         2         2         1      0.00053594
         6         2         7         3         1         1     -0.00049414
         6         2         7         3         2         1      0.00053594
         6         3         1         5         1         1      0.00008004
         6         3         1         5         1         2     -0.00002291
         6         3         1         5         1         3      0.00029032
         6         3         1         5         2         1     -0.00008404
         6         3         1         5         2         2      0.00037699
         6         3         1         5         2         3     -0.00038611
         6         3         2         6         1         1      0.00027788
         6         3         2         6         1         2     -0.00011833
         6         3         3         7         1         1      0.00027788
         6         3         3         7         1         2     -0.00011833
         6         3         5         1         1         1      0.00060055
         6         3         5         1         1         2      0.00023746
         6         3         5         1         2         1     -0.00041799
         6         3         5         1         2         2     -0.00034762
         6         3         5         1         3         1     -0.00023387
         6         3         5         1         3         2      0.00007404
         6         3         6         2         1         1      0.00015406
         6         3         6         2         2         1     -0.00018093
         6         3         7         3         1         1      0.00015406
         6         3         7         3         2         1     -0.00018093
         7         1         1         5         1         1     -0.00050691
         7         1         1         5         1         2      0.00035437
         7         1         1         5         1         3      0.00024276
         7         1         1         5         2         1      0.00022876
         7         1         1         5         2         2     -0.00034249
         7         1         1         5         2         3      0.00003121
         7         1         2         6         1         1     -0.00057109
         7         1         2         6         1         2      0.00062986
         7         1         3         7         1         1     -0.00057109
         7         1         3         7         1         2      0.00062986
         7         1         5         1         1         1     -0.00057863
         7         1         5         1         1         2      0.00063378
         7         1         5         1         2         1      0.00026849
         7         1         5         1         2         2     -0.00057692
         7         1         5         1         3         1      0.00015851
         7         1         5         1         3         2      0.00010419
         7         1         6         2         1         1     -0.00098905
         7         1         6         2         2         1      0.00060664
         7         1         7         3         1         1     -0.00098905
         7         1         7         3         2         1      0.00060664
         7         2         1         5         1         1      0.00485146
         7         2         1         5         1         2      0.00434612
         7         2         1         5         1         3     -0.00632084
         7         2         1         5         2         1      0.00942079
         7         2         1         5         2         2     -0.00263618
         7         2         1         5         2         3     -0.00452826
         7         2         2         6         1         1     -0.01204449
         7         2         2         6         1         2      0.00621887
         7         2         3         7         1         1     -0.01204449
         7         2         3         7         1         2      0.00621887
         7         2         5         1         1         1      0.00204359
         7         2         5         1         1         2      0.00869398
         7         2         5         1         2         1      0.00690186
         7         2         5         1         2         2      0.00036698
         7         2         5         1         3         1     -0.00583158
         7         2         5         1         3         2     -0.00717779
         7         2         6         2         1         1     -0.00953127
         7         2         6         2         2         1      0.00608482
         7         2         7         3         1         1     -0.00953127
         7         2         7         3         2         1      0.00608482
         7         3         1         5         1         1      0.01538352
         7         3         1         5         1         2     -0.02019744
         7         3         1         5         1         3      0.00405242
         7         3         1         5         2         1      0.00822669
         7         3         1         5         2         2     -0.00309158
         7         3         1         5         2         3     -0.00220543
         7         3         2         6         1         1      0.00685445
         7         3         2         6         1         2     -0.00271201
         7         3         3         7         1         1      0.00685445
         7         3         3         7         1         2     -0.00271201
         7         3         5         1         1         1      0.00394213
         7         3         5         1         1         2      0.00894312
         7         3         5         1         2         1     -0.01742810
         7         3         5         1         2         2      0.00247033
         7         3         5         1         3         1      0.00885439
         7         3         5         1         3         2     -0.00596706
         7         3         6         2         1         1      0.00677023
         7         3         6         2         2         1     -0.00301182
         7         3         7         3         1         1      0.00677023
         7         3         7         3         2         1     -0.00301182
         6         4         1         6         1         1      0.00018568
         6         4         1         6         1         2      0.00017155
         6         4         1         6         2         1      0.00001011
         6         4         1         6         2         2      0.00011551
         6         4         2         5         1         1     -0.00032274
         6         4         2         5         1         2     -0.00018475
         6         4         2         5         1         3      0.00033026
         6         4         5         2         1         1      0.00012140
         6         4         5         2         2         1      0.00008629
         6         4         5         2         3         1     -0.00020187
         6         4         6         1         1         1      0.00054340
         6         4         6         1         1         2      0.00035514
         6         4         6         1         2         1     -0.00041863
         6         4         6         1         2         2     -0.00026377
         7         4         1         6         1         1      0.01888613
         7         4         1         6         1         2     -0.01405398
         7         4         1         6         2         1      0.00945360
         7         4         1         6         2         2     -0.00608426
         7         4         2         5         1         1     -0.00502476
         7         4         2         5         1         2     -0.00364125
         7         4         2         5         1         3      0.00459270
         7         4         5         2         1         1     -0.00604765
         7         4         5         2         2         1     -0.01064170
         7         4         5         2         3         1      0.01210196
         7         4         6         1         1         1      0.01305579
         7         4         6         1         1         2      0.00264378
         7         4         6         1         2         1     -0.00762722
         7         4         6         1         2         2     -0.00392709
         6         5         1         7         1         1      0.00018568
         6         5         1         7         1         2      0.00017155
         6         5         1         7         2         1      0.00001011
         6         5         1         7         2         2      0.00011551
         6         5         3         5         1         1     -0.00032274
         6         5         3         5         1         2     -0.00018475
         6         5         3         5         1         3      0.00033026
         6         5         5         3         1         1      0.00012140
         6         5         5         3         2         1      0.00008629
         6         5         5         3         3         1     -0.00020187
         6         5         7         1         1         1      0.00054340
         6         5         7         1         1         2      0.00035514
         6         5         7         1         2         1     -0.00041863
         6         5         7         1         2         2     -0.00026377
         7         5         1         7         1         1      0.01888613
         7         5         1         7         1         2     -0.01405398
         7         5         1         7         2         1      0.00945360
         7         5         1         7         2         2     -0.00608426
         7         5         3         5         1         1     -0.00502476
         7         5         3         5         1         2     -0.00364125
         7         5         3         5         1         3      0.00459270
         7         5         5         3         1         1     -0.00604765
         7         5         5         3         2         1     -0.01064170
         7         5         5         3         3         1      0.01210196
         7         5         7         1         1         1      0.01305579
         7         5         7         1         1         2      0.00264378
         7         5         7         1         2         1     -0.00762722
         7         5         7         1         2         2     -0.00392709


 RESULTS
 =======

  Reference energy                   -108.560379433159

  Correlated core orbitals:             1.1       1.5
  Orbital energies:                   -15.8177  -15.8171

  CCSD core-core energy                -0.000610585509
  CCSD core-valence energy             -0.001457252011
  CCSD valence correlation energy      -0.353101101164

  CCSD singlet pair energy             -0.293319289274
  CCSD triplet pair energy             -0.061849646793
  CCSD correlation energy              -0.355168938684

 !CCSD total energy                  -108.915548371843

 Timing summary (sec):

 STEP                 CPU(USER)    SYS     CPU(TOT)    WALL
 CCSD iterations         0.12      0.02      0.14      0.15

 Program statistics:

 Available memory in ccsd:                39999004
 Min. memory needed in ccsd:                  3850
 Max. memory used in ccsd:                    4069
 Max. memory used in cckext:                 37464 (27 integral passes)



 **********************************************************************************************************************************
 DATASETS  * FILE   NREC   LENGTH (MB)   RECORD NAMES
              1      20       30.01       500      700      610      900      950      970     1000      129      960     1100   
                                          VAR     GEOM    BASINP   SYMINP    ZMAT    AOBASIS   BASIS     P2S    ABASIS      S 
                                         1400     1410     1200     1210     1080     1600     1650     1300     1700     1380   
                                           T        V       H0       H01     AOSYM     SMH    MOLCAS    ERIS     OPER     JKOP   

              3       5       14.77       500      610      700     1000     2100   
                                          VAR    BASINP    GEOM     BASIS     RHF  

 PROGRAMS   *        TOTAL      CCSD       INT   RESTART
 CPU TIMES  *         0.46      0.19      0.15      0.02
 REAL TIME  *         0.68 SEC
 DISK USED  *        49.44 MB
 **********************************************************************************************************************************
 Molecular orbitals read from record     2100.3  Type=RHF/CANONICAL (state 1.1)
 Occupation numbers read from record     2100.3  Type=RHF/RHF (state 1.1)
 Orbital energies read from record       2100.3  Type=RHF/CANONICAL (state 1.1)
 Redundancy group numbers read from rec  2100.3  Type=RHF/RHF (state 1.1)

 CCSD/6-31G energy=   -108.915548371843

            CCSD
   -108.91554837
 **********************************************************************************************************************************
 Molpro calculation terminated
