
 Primary working directories    : /scr/yuriaoto/job.023648/molpro.fbn8v4Ctsl
 Secondary working directories  : /scr/yuriaoto/job.023648/molpro.fbn8v4Ctsl
 Wavefunction directory         : /scr/yuriaoto/job.023648/
 Main file repository           : /scr/yuriaoto/job.023648/molpro.fbn8v4Ctsl/

 id        : yuriaoto

 Nodes             nprocs
 t-rex.ufabc.int.br    1

 Using customized tuning parameters: mindgm=8; mindgv=16; mindgc=1; mindgr=1; noblas=0; minvec=7
 default implementation of scratch files=df  


 Variables initialized (933), CPU time= 0.01 sec
 ***,
 memory,40,m
 gprint,orbital,basis,civector
 gthresh,thrprint=0,printci=0.0
 file,3,wfu.dat,old
 
 {ccsd,CC_NORM_MAX=10000.0
 nosingle
 thresh,printci=0.0,ENERGY=1.0E-10,COEFF=1.0E-12
 print,ref=1
 wf,16,1,0;
 }
 
 Commands  initialized (760), CPU time= 0.01 sec, 617 directives.
 Default parameters read. Elapsed time= 0.04 sec

 Checking input...
 Passed
1


                                         ***  PROGRAM SYSTEM MOLPRO  ***
                                       Copyright, TTI GmbH Stuttgart, 2015
                                    Version 2019.2 linked Abr  7 2019 15:10:35


 **********************************************************************************************************************************
 LABEL *                                                                                 
  64 bit serial version                                                                  DATE: 05-Jun-20          TIME: 22:23:10  
 **********************************************************************************************************************************

 SHA1:             3a8a58c585c929645742fb5a1b7541a4ad1da699
 **********************************************************************************************************************************


 THRESHOLDS:

 ZERO    =  1.00D-12  ONEINT  =  1.00D-12  TWOINT  =  1.00D-11  PREFAC  =  1.00D-14  XXXXXX  =  1.00D-09  EORDER  =  1.00D-04
 ENERGY  =  0.00D+00  ETEST   =  0.00D+00  EDENS   =  0.00D+00  THRDEDEF=  1.00D-06  GRADIENT=  1.00D-02  STEP    =  1.00D-03
 ORBITAL =  1.00D-05  CIVEC   =  1.00D-05  COEFF   =  1.00D-04  PRINTCI =  0.00D+00  PUNCHCI =  9.90D+01  OPTGRAD =  3.00D-04
 OPTENERG=  1.00D-06  OPTSTEP =  3.00D-04  THRGRAD =  1.00D-10  COMPRESS=  1.00D-11  VARMIN  =  1.00D-07  VARMAX  =  1.00D-03
 THRDOUB =  0.00D+00  THRDIV  =  1.00D-05  THRRED  =  1.00D-07  THRPSP  =  1.00D+00  THRDC   =  1.00D-10  THRCS   =  1.00D-10
 THRNRM  =  1.00D-08  THREQ   =  0.00D+00  THRDE   =  1.00D+00  THRREF  =  1.00D-05  SPARFAC =  1.00D+00  THRDLP  =  1.00D-07
 THRDIA  =  1.00D-10  THRDLS  =  1.00D-07  THRGPS  =  0.00D+00  THRKEX  =  0.00D+00  THRDIS  =  2.00D-01  THRVAR  =  1.00D-10
 THRLOC  =  1.00D-06  THRGAP  =  1.00D-06  THRLOCT = -1.00D+00  THRGAPT = -1.00D+00  THRORB  =  1.00D-06  THRMLTP =  0.00D+00
 THRCPQCI=  1.00D-10  KEXTA   =  0.00D+00  THRCOARS=  0.00D+00  SYMTOL  =  1.00D-06  GRADTOL =  1.00D-06  THROVL  =  1.00D-08
 THRORTH =  1.00D-08  GRID    =  1.00D-06  GRIDMAX =  1.00D-03  DTMAX   =  0.00D+00  THROCCDE=  1.00D-01  THROCCDE=  1.00D-01
 THRPRINT=  0.00D+00


 Variable memory set to   40000000 words,  buffer space 



 Permanent file  3  wfu.dat  assigned.  Implementation=df    Size= 14.20 MB


 PROGRAM * RESTART 


 Reading variables from file 3

 _FNUC           =      0.00000000
 _BASIS          =    CC-PVDZ
 _NELEC          =     16.00000000
 _PROGRAM        =    RHF-SCF
 _DMZ            =      0.00000000
 _DMX_SCF        =      0.00000000
 _DMY_SCF        =      0.00000000
 _DMZ_SCF        =      0.00000000
 _HOMO           =      1.80000000
 _EHOMO          =     -0.90875099
 _LUMO           =      2.10000000
 _ELUMO          =      1.32506671
 _ENERGY         =    -22.84127344
 _ENERGY_METHOD  =    RHF
 _ENERGY_BASIS   =    cc-pVDZ
 _ENUC           =     16.08323531
 _EPS1(1:5)      =     -0.91973204     1.32506671     2.52435041     2.52435041     2.52440812
 _EPS2(1:5)      =     -0.91593984     1.37330839     2.52434859     2.52437180     2.52443669
 _EPS3(1:5)      =     -0.91593984     1.37330839     2.52434859     2.52437180     2.52443669
 _EPS4(1:5)      =     -0.91228103     1.42287575     2.52435723     2.52439641     2.52445206
 _EPS5(1:5)      =     -0.91593984     1.37330839     2.52434859     2.52437180     2.52443669
 _EPS6(1:5)      =     -0.91228103     1.42287575     2.52435723     2.52439641     2.52445206
 _EPS7(1:5)      =     -0.91228103     1.42287575     2.52435723     2.52439641     2.52445206
 _EPS8(1:5)      =     -0.90875099     1.47382765     2.52439461     2.52439461     2.52446567
 _IPROC_MPP      =      0.00000000
 _IPROC_MPPX     =      0.00000000
 _ORBITAL        =   2100.30000000
 _STATUS         =      1.00000000
 _DATE           =    23-Mar-20
 _LASTORB        =    RHF
 _OUTPUT         =    /scr/yuriaoto/job.022846/RHF.xml
 _PGROUP         =    D2h 
 _TIME           =    15:35:31
 R               =      1.50000000

 Geometry written to block  1 of record 700


 **********************************************************************************************************************************
 DATASETS  * FILE   NREC   LENGTH (MB)   RECORD NAMES
              3       5       14.89       500      610      700     1000     2100   
                                          VAR    BASINP    GEOM     BASIS     RHF  

 PROGRAMS   *        TOTAL   RESTART
 CPU TIMES  *         0.12      0.02
 REAL TIME  *         0.15 SEC
 DISK USED  *        26.99 MB
 **********************************************************************************************************************************


 Recomputing integrals since basis changed


 Using spherical harmonics

 Library entry HE     S cc-pVDZ              selected for orbital group  1
 Library entry HE     P cc-pVDZ              selected for orbital group  1


 PROGRAM * SEWARD (Integral evaluation for generally contracted gaussian basis sets)     Author: Roland Lindh, 1990

 Geometry written to block  1 of record 700


 Point group  D2h 



 ATOMIC COORDINATES

 NR  ATOM    CHARGE       X              Y              Z

   1  HE1     2.00    2.834589187    2.834589187    2.834589187
   2  HE2     2.00   -2.834589187   -2.834589187    2.834589187
   3  HE3     2.00    2.834589187   -2.834589187    2.834589187
   4  HE4     2.00   -2.834589187    2.834589187    2.834589187
   5  HE5     2.00    2.834589187    2.834589187   -2.834589187
   6  HE6     2.00   -2.834589187   -2.834589187   -2.834589187
   7  HE7     2.00    2.834589187   -2.834589187   -2.834589187
   8  HE8     2.00   -2.834589187    2.834589187   -2.834589187


 BASIS DATA

   Nr Sym  Nuc  Type         Exponents   Contraction coefficients

    1.1 Ag    1  1s          38.360000     0.023809    0.000000
    2.1 Ag    2  1s           5.770000     0.154891    0.000000
              3  1s           1.240000     0.469987    0.000000
              4  1s           0.297600     0.513027    1.000000
              5  1s    
              6  1s    
              7  1s    
              8  1s    
    3.1 Ag    1  2px          1.275000     1.000000
              2 -2px   
              3  2px   
              4 -2px   
              5  2px   
              6 -2px   
              7  2px   
              8 -2px   
    4.1 Ag    1  2py          1.275000     1.000000
              2 -2py   
              3 -2py   
              4  2py   
              5  2py   
              6 -2py   
              7 -2py   
              8  2py   
    5.1 Ag    1  2pz          1.275000     1.000000
              2  2pz   
              3  2pz   
              4  2pz   
              5 -2pz   
              6 -2pz   
              7 -2pz   
              8 -2pz   
    1.2 B3u   1  1s          38.360000     0.023809    0.000000
    2.2 B3u   2 -1s           5.770000     0.154891    0.000000
              3  1s           1.240000     0.469987    0.000000
              4 -1s           0.297600     0.513027    1.000000
              5  1s    
              6 -1s    
              7  1s    
              8 -1s    
    3.2 B3u   1  2px          1.275000     1.000000
              2  2px   
              3  2px   
              4  2px   
              5  2px   
              6  2px   
              7  2px   
              8  2px   
    4.2 B3u   1  2py          1.275000     1.000000
              2  2py   
              3 -2py   
              4 -2py   
              5  2py   
              6  2py   
              7 -2py   
              8 -2py   
    5.2 B3u   1  2pz          1.275000     1.000000
              2 -2pz   
              3  2pz   
              4 -2pz   
              5 -2pz   
              6  2pz   
              7 -2pz   
              8  2pz   
    1.3 B2u   1  1s          38.360000     0.023809    0.000000
    2.3 B2u   2 -1s           5.770000     0.154891    0.000000
              3 -1s           1.240000     0.469987    0.000000
              4  1s           0.297600     0.513027    1.000000
              5  1s    
              6 -1s    
              7 -1s    
              8  1s    
    3.3 B2u   1  2py          1.275000     1.000000
              2  2py   
              3  2py   
              4  2py   
              5  2py   
              6  2py   
              7  2py   
              8  2py   
    4.3 B2u   1  2px          1.275000     1.000000
              2  2px   
              3 -2px   
              4 -2px   
              5  2px   
              6  2px   
              7 -2px   
              8 -2px   
    5.3 B2u   1  2pz          1.275000     1.000000
              2 -2pz   
              3 -2pz   
              4  2pz   
              5 -2pz   
              6  2pz   
              7  2pz   
              8 -2pz   
    1.4 B1g   1  1s          38.360000     0.023809    0.000000
    2.4 B1g   2  1s           5.770000     0.154891    0.000000
              3 -1s           1.240000     0.469987    0.000000
              4 -1s           0.297600     0.513027    1.000000
              5  1s    
              6  1s    
              7 -1s    
              8 -1s    
    3.4 B1g   1  2py          1.275000     1.000000
              2 -2py   
              3  2py   
              4 -2py   
              5  2py   
              6 -2py   
              7  2py   
              8 -2py   
    4.4 B1g   1  2px          1.275000     1.000000
              2 -2px   
              3 -2px   
              4  2px   
              5  2px   
              6 -2px   
              7 -2px   
              8  2px   
    5.4 B1g   1  2pz          1.275000     1.000000
              2  2pz   
              3 -2pz   
              4 -2pz   
              5 -2pz   
              6 -2pz   
              7  2pz   
              8  2pz   
    1.5 B1u   1  1s          38.360000     0.023809    0.000000
    2.5 B1u   2  1s           5.770000     0.154891    0.000000
              3  1s           1.240000     0.469987    0.000000
              4  1s           0.297600     0.513027    1.000000
              5 -1s    
              6 -1s    
              7 -1s    
              8 -1s    
    3.5 B1u   1  2pz          1.275000     1.000000
              2  2pz   
              3  2pz   
              4  2pz   
              5  2pz   
              6  2pz   
              7  2pz   
              8  2pz   
    4.5 B1u   1  2px          1.275000     1.000000
              2 -2px   
              3  2px   
              4 -2px   
              5 -2px   
              6  2px   
              7 -2px   
              8  2px   
    5.5 B1u   1  2py          1.275000     1.000000
              2 -2py   
              3 -2py   
              4  2py   
              5 -2py   
              6  2py   
              7  2py   
              8 -2py   
    1.6 B2g   1  1s          38.360000     0.023809    0.000000
    2.6 B2g   2 -1s           5.770000     0.154891    0.000000
              3  1s           1.240000     0.469987    0.000000
              4 -1s           0.297600     0.513027    1.000000
              5 -1s    
              6  1s    
              7 -1s    
              8  1s    
    3.6 B2g   1  2pz          1.275000     1.000000
              2 -2pz   
              3  2pz   
              4 -2pz   
              5  2pz   
              6 -2pz   
              7  2pz   
              8 -2pz   
    4.6 B2g   1  2px          1.275000     1.000000
              2  2px   
              3  2px   
              4  2px   
              5 -2px   
              6 -2px   
              7 -2px   
              8 -2px   
    5.6 B2g   1  2py          1.275000     1.000000
              2  2py   
              3 -2py   
              4 -2py   
              5 -2py   
              6 -2py   
              7  2py   
              8  2py   
    1.7 B3g   1  1s          38.360000     0.023809    0.000000
    2.7 B3g   2 -1s           5.770000     0.154891    0.000000
              3 -1s           1.240000     0.469987    0.000000
              4  1s           0.297600     0.513027    1.000000
              5 -1s    
              6  1s    
              7  1s    
              8 -1s    
    3.7 B3g   1  2pz          1.275000     1.000000
              2 -2pz   
              3 -2pz   
              4  2pz   
              5  2pz   
              6 -2pz   
              7 -2pz   
              8  2pz   
    4.7 B3g   1  2py          1.275000     1.000000
              2  2py   
              3  2py   
              4  2py   
              5 -2py   
              6 -2py   
              7 -2py   
              8 -2py   
    5.7 B3g   1  2px          1.275000     1.000000
              2  2px   
              3 -2px   
              4 -2px   
              5 -2px   
              6 -2px   
              7  2px   
              8  2px   
    1.8 Au    1  1s          38.360000     0.023809    0.000000
    2.8 Au    2  1s           5.770000     0.154891    0.000000
              3 -1s           1.240000     0.469987    0.000000
              4 -1s           0.297600     0.513027    1.000000
              5 -1s    
              6 -1s    
              7  1s    
              8  1s    
    3.8 Au    1  2pz          1.275000     1.000000
              2  2pz   
              3 -2pz   
              4 -2pz   
              5  2pz   
              6  2pz   
              7 -2pz   
              8 -2pz   
    4.8 Au    1  2py          1.275000     1.000000
              2 -2py   
              3  2py   
              4 -2py   
              5 -2py   
              6  2py   
              7 -2py   
              8  2py   
    5.8 Au    1  2px          1.275000     1.000000
              2 -2px   
              3 -2px   
              4  2px   
              5 -2px   
              6  2px   
              7  2px   
              8 -2px   

 NUCLEAR CHARGE:                   16
 NUMBER OF PRIMITIVE AOS:          56
 NUMBER OF SYMMETRY AOS:           56
 NUMBER OF CONTRACTIONS:           40   (    5Ag  +    5B3u +    5B2u +    5B1g +    5B1u +    5B2g +    5B3g +    5Au  )
 NUMBER OF CORE ORBITALS:           0   (    0Ag  +    0B3u +    0B2u +    0B1g +    0B1u +    0B2g +    0B3g +    0Au  )
 NUMBER OF VALENCE ORBITALS:        8   (    1Ag  +    1B3u +    1B2u +    1B1g +    1B1u +    1B2g +    1B3g +    1Au  )


 NUCLEAR REPULSION ENERGY   16.08323531

 Eigenvalues of metric

         1 0.114E+00 0.100E+01 0.100E+01 0.100E+01 0.192E+01
         2 0.112E+00 0.100E+01 0.100E+01 0.100E+01 0.190E+01
         3 0.112E+00 0.100E+01 0.100E+01 0.100E+01 0.190E+01
         4 0.110E+00 0.100E+01 0.100E+01 0.100E+01 0.188E+01
         5 0.112E+00 0.100E+01 0.100E+01 0.100E+01 0.190E+01
         6 0.110E+00 0.100E+01 0.100E+01 0.100E+01 0.188E+01
         7 0.110E+00 0.100E+01 0.100E+01 0.100E+01 0.188E+01
         8 0.108E+00 0.100E+01 0.100E+01 0.100E+01 0.186E+01


 Contracted 2-electron integrals neglected if value below      1.0D-11
 AO integral compression algorithm  1   Integral accuracy      1.0D-11

     0.786 MB (compressed) written to integral file ( 77.0%)


 NUMBER OF SORTED TWO-ELECTRON INTEGRALS:      46110.     BUFFER LENGTH:  32768
 NUMBER OF SEGMENTS:   1  SEGMENT LENGTH:      46110      RECORD LENGTH: 524288

 Memory used in sort:       0.60 MW

 SORT1 READ      154112. AND WROTE       46110. INTEGRALS IN      1 RECORDS. CPU TIME:     0.00 SEC, REAL TIME:     0.00 SEC
 SORT2 READ       46110. AND WROTE       46110. INTEGRALS IN      3 RECORDS. CPU TIME:     0.04 SEC, REAL TIME:     0.06 SEC

 FILE SIZES:   FILE 1:    30.9 MBYTE,  FILE 4:     4.2 MBYTE,   TOTAL:     35.1 MBYTE

 OPERATOR DM      FOR CENTER  0  COORDINATES:    0.000000    0.000000    0.000000


 **********************************************************************************************************************************
 DATASETS  * FILE   NREC   LENGTH (MB)   RECORD NAMES
              1      19       30.36       500      700      610      900      950      970     1000      129      960     1100   
                                          VAR     GEOM    BASINP   SYMINP    ZMAT    AOBASIS   BASIS     P2S    ABASIS      S 
                                         1400     1410     1200     1210     1080     1600     1650     1300     1700   
                                           T        V       H0       H01     AOSYM     SMH    MOLCAS    ERIS     OPER   

              3       5       14.89       500      610      700     1000     2100   
                                          VAR    BASINP    GEOM     BASIS     RHF  

 PROGRAMS   *        TOTAL       INT   RESTART
 CPU TIMES  *         0.37      0.25      0.02
 REAL TIME  *         0.51 SEC
 DISK USED  *        50.37 MB
 **********************************************************************************************************************************


 PROGRAM * CCSD (Closed-shell coupled cluster)     Authors: C. Hampel, H.-J. Werner, 1991, M. Deegan, P.J. Knowles, 1992


 Input parameters for THRESH:

 ENERGY   =    1.00D-10
 COEFF    =    1.00D-12
 PRINTCI  =    0.000000
 THRPRINT =    0.000000

 Convergence thresholds:  THRVAR = 1.00D-24  THRDEN = 1.00D-10

 Number of closed-shell orbitals:   8 (   1   1   1   1   1   1   1   1 )
 Number of external orbitals:      32 (   4   4   4   4   4   4   4   4 )

 Molecular orbitals read from record     2100.3  Type=RHF/CANONICAL (state 1.1)

 Number of N-1 electron functions:               0
 Number of N-2 electron functions:              36
 Number of singly external CSFs:                 0
 Number of doubly external CSFs:              4224
 Total number of CSFs:                        4225

 Length of J-op  integral file:               0.00 MB
 Length of K-op  integral file:               0.04 MB
 Length of 3-ext integral record:             0.00 MB

 Integral transformation finished. Total CPU:   0.01 sec, npass=  1  Memory used:   0.10 MW

 Reference energy:                    -22.84127344

 MP2 singlet pair energy:              -0.20665136
 MP2 triplet pair energy:              -0.00005958
 MP2 correlation energy:               -0.20671094
 MP2 total energy:                    -23.04798438

 SCS-MP2 correlation energy:           -0.24801871   (PS=  1.200000  PT=  0.333333)
 SCS-MP2 total energy:                -23.08929215

 ITER.      SQ.NORM     CORR.ENERGY   TOTAL ENERGY   ENERGY CHANGE        DEN1      VAR(S)    VAR(P)  DIIS     TIME  TIME/IT
   1      1.05265632    -0.25720434   -23.09847778    -0.05049340    -0.04057058  0.00D+00  0.15D-02  1  1     0.02     0.01
   2      1.05830531    -0.25955527   -23.10082871    -0.00235093    -0.01209935  0.00D+00  0.40D-05  2  2     0.03     0.01
   3      1.05845194    -0.25953656   -23.10081000     0.00001871    -0.00015553  0.00D+00  0.58D-10  3  3     0.04     0.01
   4      1.05845522    -0.25954303   -23.10081647    -0.00000646    -0.00000668  0.00D+00  0.16D-11  4  4     0.06     0.01
   5      1.05845504    -0.25954270   -23.10081614     0.00000033     0.00000038  0.00D+00  0.30D-14  5  5     0.06     0.01
   6      1.05845492    -0.25954246   -23.10081590     0.00000024     0.00000024  0.00D+00  0.10D-15  6  6     0.07     0.01
   7      1.05845493    -0.25954248   -23.10081592    -0.00000002    -0.00000002  0.00D+00  0.34D-17  6  1     0.08     0.01
   8      1.05845493    -0.25954248   -23.10081592     0.00000000     0.00000000  0.00D+00  0.91D-19  6  3     0.09     0.01
   9      1.05845493    -0.25954248   -23.10081592     0.00000000     0.00000000  0.00D+00  0.26D-20  6  2     0.10     0.01
  10      1.05845493    -0.25954248   -23.10081592    -0.00000000    -0.00000000  0.00D+00  0.99D-23  6  4     0.10     0.01
  11      1.05845493    -0.25954248   -23.10081592    -0.00000000     0.00000000  0.00D+00  0.25D-24  6  5     0.11     0.01


 Doubles amplitudes (print threshold =  0.000E+00):

         I         J         SYM. A    SYM. B    A         B      T(IJ, AB)

         1         1         1         1         1         1     -0.00837031
         1         1         1         1         1         2     -0.00000000
         1         1         1         1         1         3     -0.00000000
         1         1         1         1         1         4      0.00001362
         1         1         1         1         2         1     -0.00000000
         1         1         1         1         2         2     -0.00409815
         1         1         1         1         2         3     -0.00000000
         1         1         1         1         2         4      0.00000000
         1         1         1         1         3         1     -0.00000000
         1         1         1         1         3         2     -0.00000000
         1         1         1         1         3         3     -0.00409815
         1         1         1         1         3         4     -0.00000000
         1         1         1         1         4         1      0.00001362
         1         1         1         1         4         2      0.00000000
         1         1         1         1         4         3     -0.00000000
         1         1         1         1         4         4     -0.00415372
         1         1         2         2         1         1     -0.00809152
         1         1         2         2         1         2     -0.00000000
         1         1         2         2         1         3      0.00000714
         1         1         2         2         1         4     -0.00000885
         1         1         2         2         2         1     -0.00000000
         1         1         2         2         2         2     -0.00402888
         1         1         2         2         2         3      0.00000000
         1         1         2         2         2         4      0.00000000
         1         1         2         2         3         1      0.00000714
         1         1         2         2         3         2      0.00000000
         1         1         2         2         3         3     -0.00400839
         1         1         2         2         3         4      0.00003529
         1         1         2         2         4         1     -0.00000885
         1         1         2         2         4         2      0.00000000
         1         1         2         2         4         3      0.00003529
         1         1         2         2         4         4     -0.00403108
         1         1         3         3         1         1     -0.00809152
         1         1         3         3         1         2      0.00000000
         1         1         3         3         1         3      0.00000714
         1         1         3         3         1         4     -0.00000885
         1         1         3         3         2         1      0.00000000
         1         1         3         3         2         2     -0.00402888
         1         1         3         3         2         3     -0.00000000
         1         1         3         3         2         4     -0.00000000
         1         1         3         3         3         1      0.00000714
         1         1         3         3         3         2     -0.00000000
         1         1         3         3         3         3     -0.00400839
         1         1         3         3         3         4      0.00003529
         1         1         3         3         4         1     -0.00000885
         1         1         3         3         4         2     -0.00000000
         1         1         3         3         4         3      0.00003529
         1         1         3         3         4         4     -0.00403108
         1         1         4         4         1         1     -0.00782386
         1         1         4         4         1         2      0.00000531
         1         1         4         4         1         3      0.00000000
         1         1         4         4         1         4     -0.00000513
         1         1         4         4         2         1      0.00000531
         1         1         4         4         2         2     -0.00398154
         1         1         4         4         2         3      0.00000000
         1         1         4         4         2         4      0.00002344
         1         1         4         4         3         1      0.00000000
         1         1         4         4         3         2      0.00000000
         1         1         4         4         3         3     -0.00391456
         1         1         4         4         3         4     -0.00000000
         1         1         4         4         4         1     -0.00000513
         1         1         4         4         4         2      0.00002344
         1         1         4         4         4         3     -0.00000000
         1         1         4         4         4         4     -0.00396428
         1         1         5         5         1         1     -0.00809152
         1         1         5         5         1         2      0.00000000
         1         1         5         5         1         3      0.00000714
         1         1         5         5         1         4     -0.00000885
         1         1         5         5         2         1      0.00000000
         1         1         5         5         2         2     -0.00402888
         1         1         5         5         2         3     -0.00000000
         1         1         5         5         2         4     -0.00000000
         1         1         5         5         3         1      0.00000714
         1         1         5         5         3         2     -0.00000000
         1         1         5         5         3         3     -0.00400839
         1         1         5         5         3         4      0.00003529
         1         1         5         5         4         1     -0.00000885
         1         1         5         5         4         2     -0.00000000
         1         1         5         5         4         3      0.00003529
         1         1         5         5         4         4     -0.00403108
         1         1         6         6         1         1     -0.00782386
         1         1         6         6         1         2      0.00000531
         1         1         6         6         1         3      0.00000000
         1         1         6         6         1         4     -0.00000513
         1         1         6         6         2         1      0.00000531
         1         1         6         6         2         2     -0.00398154
         1         1         6         6         2         3      0.00000000
         1         1         6         6         2         4      0.00002344
         1         1         6         6         3         1      0.00000000
         1         1         6         6         3         2      0.00000000
         1         1         6         6         3         3     -0.00391456
         1         1         6         6         3         4     -0.00000000
         1         1         6         6         4         1     -0.00000513
         1         1         6         6         4         2      0.00002344
         1         1         6         6         4         3     -0.00000000
         1         1         6         6         4         4     -0.00396428
         1         1         7         7         1         1     -0.00782386
         1         1         7         7         1         2      0.00000531
         1         1         7         7         1         3      0.00000000
         1         1         7         7         1         4     -0.00000513
         1         1         7         7         2         1      0.00000531
         1         1         7         7         2         2     -0.00398154
         1         1         7         7         2         3      0.00000000
         1         1         7         7         2         4      0.00002344
         1         1         7         7         3         1      0.00000000
         1         1         7         7         3         2      0.00000000
         1         1         7         7         3         3     -0.00391456
         1         1         7         7         3         4     -0.00000000
         1         1         7         7         4         1     -0.00000513
         1         1         7         7         4         2      0.00002344
         1         1         7         7         4         3     -0.00000000
         1         1         7         7         4         4     -0.00396428
         1         1         8         8         1         1     -0.00756687
         1         1         8         8         1         2      0.00000000
         1         1         8         8         1         3     -0.00000000
         1         1         8         8         1         4     -0.00000205
         1         1         8         8         2         1      0.00000000
         1         1         8         8         2         2     -0.00390007
         1         1         8         8         2         3      0.00000000
         1         1         8         8         2         4     -0.00000000
         1         1         8         8         3         1     -0.00000000
         1         1         8         8         3         2      0.00000000
         1         1         8         8         3         3     -0.00390007
         1         1         8         8         3         4      0.00000000
         1         1         8         8         4         1     -0.00000205
         1         1         8         8         4         2     -0.00000000
         1         1         8         8         4         3      0.00000000
         1         1         8         8         4         4     -0.00392538
         2         2         1         1         1         1     -0.00846532
         2         2         1         1         1         2      0.00000014
         2         2         1         1         1         3      0.00000003
         2         2         1         1         1         4      0.00000513
         2         2         1         1         2         1      0.00000014
         2         2         1         1         2         2     -0.00405971
         2         2         1         1         2         3     -0.00000130
         2         2         1         1         2         4     -0.00003391
         2         2         1         1         3         1      0.00000003
         2         2         1         1         3         2     -0.00000130
         2         2         1         1         3         3     -0.00405342
         2         2         1         1         3         4     -0.00000672
         2         2         1         1         4         1      0.00000513
         2         2         1         1         4         2     -0.00003391
         2         2         1         1         4         3     -0.00000672
         2         2         1         1         4         4     -0.00402698
         2         2         2         2         1         1     -0.00818223
         2         2         2         2         1         2     -0.00000000
         2         2         2         2         1         3      0.00000506
         2         2         2         2         1         4     -0.00001103
         2         2         2         2         2         1     -0.00000000
         2         2         2         2         2         2     -0.00412261
         2         2         2         2         2         3      0.00000000
         2         2         2         2         2         4     -0.00000000
         2         2         2         2         3         1      0.00000506
         2         2         2         2         3         2      0.00000000
         2         2         2         2         3         3     -0.00417713
         2         2         2         2         3         4     -0.00000162
         2         2         2         2         4         1     -0.00001103
         2         2         2         2         4         2     -0.00000000
         2         2         2         2         4         3     -0.00000162
         2         2         2         2         4         4     -0.00411934
         2         2         3         3         1         1     -0.00818160
         2         2         3         3         1         2     -0.00000441
         2         2         3         3         1         3      0.00000217
         2         2         3         3         1         4      0.00000103
         2         2         3         3         2         1     -0.00000441
         2         2         3         3         2         2     -0.00399564
         2         2         3         3         2         3      0.00001734
         2         2         3         3         2         4     -0.00003354
         2         2         3         3         3         1      0.00000217
         2         2         3         3         3         2      0.00001734
         2         2         3         3         3         3     -0.00397835
         2         2         3         3         3         4      0.00000602
         2         2         3         3         4         1      0.00000103
         2         2         3         3         4         2     -0.00003354
         2         2         3         3         4         3      0.00000602
         2         2         3         3         4         4     -0.00395596
         2         2         4         4         1         1     -0.00791068
         2         2         4         4         1         2      0.00000528
         2         2         4         4         1         3      0.00000023
         2         2         4         4         1         4     -0.00000641
         2         2         4         4         2         1      0.00000528
         2         2         4         4         2         2     -0.00405209
         2         2         4         4         2         3      0.00002509
         2         2         4         4         2         4      0.00001917
         2         2         4         4         3         1      0.00000023
         2         2         4         4         3         2      0.00002509
         2         2         4         4         3         3     -0.00405603
         2         2         4         4         3         4      0.00001204
         2         2         4         4         4         1     -0.00000641
         2         2         4         4         4         2      0.00001917
         2         2         4         4         4         3      0.00001204
         2         2         4         4         4         4     -0.00402853
         2         2         5         5         1         1     -0.00818160
         2         2         5         5         1         2     -0.00000441
         2         2         5         5         1         3      0.00000217
         2         2         5         5         1         4      0.00000103
         2         2         5         5         2         1     -0.00000441
         2         2         5         5         2         2     -0.00399564
         2         2         5         5         2         3      0.00001734
         2         2         5         5         2         4     -0.00003354
         2         2         5         5         3         1      0.00000217
         2         2         5         5         3         2      0.00001734
         2         2         5         5         3         3     -0.00397835
         2         2         5         5         3         4      0.00000602
         2         2         5         5         4         1      0.00000103
         2         2         5         5         4         2     -0.00003354
         2         2         5         5         4         3      0.00000602
         2         2         5         5         4         4     -0.00395596
         2         2         6         6         1         1     -0.00791068
         2         2         6         6         1         2      0.00000528
         2         2         6         6         1         3      0.00000023
         2         2         6         6         1         4     -0.00000641
         2         2         6         6         2         1      0.00000528
         2         2         6         6         2         2     -0.00405209
         2         2         6         6         2         3      0.00002509
         2         2         6         6         2         4      0.00001917
         2         2         6         6         3         1      0.00000023
         2         2         6         6         3         2      0.00002509
         2         2         6         6         3         3     -0.00405603
         2         2         6         6         3         4      0.00001204
         2         2         6         6         4         1     -0.00000641
         2         2         6         6         4         2      0.00001917
         2         2         6         6         4         3      0.00001204
         2         2         6         6         4         4     -0.00402853
         2         2         7         7         1         1     -0.00790984
         2         2         7         7         1         2     -0.00000288
         2         2         7         7         1         3     -0.00000000
         2         2         7         7         1         4      0.00000279
         2         2         7         7         2         1     -0.00000288
         2         2         7         7         2         2     -0.00393905
         2         2         7         7         2         3      0.00000000
         2         2         7         7         2         4     -0.00001320
         2         2         7         7         3         1     -0.00000000
         2         2         7         7         3         2      0.00000000
         2         2         7         7         3         3     -0.00392385
         2         2         7         7         3         4      0.00000000
         2         2         7         7         4         1      0.00000279
         2         2         7         7         4         2     -0.00001320
         2         2         7         7         4         3      0.00000000
         2         2         7         7         4         4     -0.00393125
         2         2         8         8         1         1     -0.00765006
         2         2         8         8         1         2     -0.00000015
         2         2         8         8         1         3      0.00000000
         2         2         8         8         1         4     -0.00000267
         2         2         8         8         2         1     -0.00000015
         2         2         8         8         2         2     -0.00401305
         2         2         8         8         2         3      0.00000164
         2         2         8         8         2         4     -0.00001462
         2         2         8         8         3         1      0.00000000
         2         2         8         8         3         2      0.00000164
         2         2         8         8         3         3     -0.00393840
         2         2         8         8         3         4      0.00000032
         2         2         8         8         4         1     -0.00000267
         2         2         8         8         4         2     -0.00001462
         2         2         8         8         4         3      0.00000032
         2         2         8         8         4         4     -0.00397661
         3         3         1         1         1         1     -0.00846532
         3         3         1         1         1         2     -0.00000004
         3         3         1         1         1         3     -0.00000013
         3         3         1         1         1         4      0.00000513
         3         3         1         1         2         1     -0.00000004
         3         3         1         1         2         2     -0.00405387
         3         3         1         1         2         3     -0.00000208
         3         3         1         1         2         4      0.00001114
         3         3         1         1         3         1     -0.00000013
         3         3         1         1         3         2     -0.00000208
         3         3         1         1         3         3     -0.00405926
         3         3         1         1         3         4      0.00003273
         3         3         1         1         4         1      0.00000513
         3         3         1         1         4         2      0.00001114
         3         3         1         1         4         3      0.00003273
         3         3         1         1         4         4     -0.00402698
         3         3         2         2         1         1     -0.00818160
         3         3         2         2         1         2     -0.00000441
         3         3         2         2         1         3      0.00000217
         3         3         2         2         1         4      0.00000103
         3         3         2         2         2         1     -0.00000441
         3         3         2         2         2         2     -0.00399564
         3         3         2         2         2         3      0.00001734
         3         3         2         2         2         4     -0.00003354
         3         3         2         2         3         1      0.00000217
         3         3         2         2         3         2      0.00001734
         3         3         2         2         3         3     -0.00397835
         3         3         2         2         3         4      0.00000602
         3         3         2         2         4         1      0.00000103
         3         3         2         2         4         2     -0.00003354
         3         3         2         2         4         3      0.00000602
         3         3         2         2         4         4     -0.00395596
         3         3         3         3         1         1     -0.00818223
         3         3         3         3         1         2      0.00000000
         3         3         3         3         1         3      0.00000506
         3         3         3         3         1         4     -0.00001103
         3         3         3         3         2         1      0.00000000
         3         3         3         3         2         2     -0.00412261
         3         3         3         3         2         3     -0.00000000
         3         3         3         3         2         4      0.00000000
         3         3         3         3         3         1      0.00000506
         3         3         3         3         3         2     -0.00000000
         3         3         3         3         3         3     -0.00417713
         3         3         3         3         3         4     -0.00000162
         3         3         3         3         4         1     -0.00001103
         3         3         3         3         4         2      0.00000000
         3         3         3         3         4         3     -0.00000162
         3         3         3         3         4         4     -0.00411934
         3         3         4         4         1         1     -0.00791068
         3         3         4         4         1         2      0.00000528
         3         3         4         4         1         3     -0.00000023
         3         3         4         4         1         4     -0.00000641
         3         3         4         4         2         1      0.00000528
         3         3         4         4         2         2     -0.00405209
         3         3         4         4         2         3     -0.00002509
         3         3         4         4         2         4      0.00001917
         3         3         4         4         3         1     -0.00000023
         3         3         4         4         3         2     -0.00002509
         3         3         4         4         3         3     -0.00405603
         3         3         4         4         3         4     -0.00001204
         3         3         4         4         4         1     -0.00000641
         3         3         4         4         4         2      0.00001917
         3         3         4         4         4         3     -0.00001204
         3         3         4         4         4         4     -0.00402853
         3         3         5         5         1         1     -0.00818160
         3         3         5         5         1         2      0.00000441
         3         3         5         5         1         3      0.00000217
         3         3         5         5         1         4      0.00000103
         3         3         5         5         2         1      0.00000441
         3         3         5         5         2         2     -0.00399564
         3         3         5         5         2         3     -0.00001734
         3         3         5         5         2         4      0.00003354
         3         3         5         5         3         1      0.00000217
         3         3         5         5         3         2     -0.00001734
         3         3         5         5         3         3     -0.00397835
         3         3         5         5         3         4      0.00000602
         3         3         5         5         4         1      0.00000103
         3         3         5         5         4         2      0.00003354
         3         3         5         5         4         3      0.00000602
         3         3         5         5         4         4     -0.00395596
         3         3         6         6         1         1     -0.00790984
         3         3         6         6         1         2     -0.00000288
         3         3         6         6         1         3     -0.00000000
         3         3         6         6         1         4      0.00000279
         3         3         6         6         2         1     -0.00000288
         3         3         6         6         2         2     -0.00393905
         3         3         6         6         2         3      0.00000000
         3         3         6         6         2         4     -0.00001320
         3         3         6         6         3         1     -0.00000000
         3         3         6         6         3         2      0.00000000
         3         3         6         6         3         3     -0.00392385
         3         3         6         6         3         4      0.00000000
         3         3         6         6         4         1      0.00000279
         3         3         6         6         4         2     -0.00001320
         3         3         6         6         4         3      0.00000000
         3         3         6         6         4         4     -0.00393125
         3         3         7         7         1         1     -0.00791068
         3         3         7         7         1         2      0.00000528
         3         3         7         7         1         3      0.00000023
         3         3         7         7         1         4     -0.00000641
         3         3         7         7         2         1      0.00000528
         3         3         7         7         2         2     -0.00405209
         3         3         7         7         2         3      0.00002509
         3         3         7         7         2         4      0.00001917
         3         3         7         7         3         1      0.00000023
         3         3         7         7         3         2      0.00002509
         3         3         7         7         3         3     -0.00405603
         3         3         7         7         3         4      0.00001204
         3         3         7         7         4         1     -0.00000641
         3         3         7         7         4         2      0.00001917
         3         3         7         7         4         3      0.00001204
         3         3         7         7         4         4     -0.00402853
         3         3         8         8         1         1     -0.00765006
         3         3         8         8         1         2      0.00000008
         3         3         8         8         1         3      0.00000013
         3         3         8         8         1         4     -0.00000267
         3         3         8         8         2         1      0.00000008
         3         3         8         8         2         2     -0.00395848
         3         3         8         8         2         3     -0.00003314
         3         3         8         8         2         4      0.00000759
         3         3         8         8         3         1      0.00000013
         3         3         8         8         3         2     -0.00003314
         3         3         8         8         3         3     -0.00399297
         3         3         8         8         3         4      0.00001250
         3         3         8         8         4         1     -0.00000267
         3         3         8         8         4         2      0.00000759
         3         3         8         8         4         3      0.00001250
         3         3         8         8         4         4     -0.00397661
         4         4         1         1         1         1     -0.00855817
         4         4         1         1         1         2     -0.00000057
         4         4         1         1         1         3      0.00000065
         4         4         1         1         1         4      0.00000342
         4         4         1         1         2         1     -0.00000057
         4         4         1         1         2         2     -0.00399328
         4         4         1         1         2         3      0.00004033
         4         4         1         1         2         4     -0.00001131
         4         4         1         1         3         1      0.00000065
         4         4         1         1         3         2      0.00004033
         4         4         1         1         3         3     -0.00400401
         4         4         1         1         3         4      0.00001292
         4         4         1         1         4         1      0.00000342
         4         4         1         1         4         2     -0.00001131
         4         4         1         1         4         3      0.00001292
         4         4         1         1         4         4     -0.00399997
         4         4         2         2         1         1     -0.00827090
         4         4         2         2         1         2      0.00000021
         4         4         2         2         1         3     -0.00000026
         4         4         2         2         1         4     -0.00000825
         4         4         2         2         2         1      0.00000021
         4         4         2         2         2         2     -0.00408178
         4         4         2         2         2         3      0.00002979
         4         4         2         2         2         4      0.00000484
         4         4         2         2         3         1     -0.00000026
         4         4         2         2         3         2      0.00002979
         4         4         2         2         3         3     -0.00404732
         4         4         2         2         3         4     -0.00001362
         4         4         2         2         4         1     -0.00000825
         4         4         2         2         4         2      0.00000484
         4         4         2         2         4         3     -0.00001362
         4         4         2         2         4         4     -0.00407710
         4         4         3         3         1         1     -0.00827090
         4         4         3         3         1         2      0.00000021
         4         4         3         3         1         3     -0.00000026
         4         4         3         3         1         4     -0.00000825
         4         4         3         3         2         1      0.00000021
         4         4         3         3         2         2     -0.00408178
         4         4         3         3         2         3      0.00002979
         4         4         3         3         2         4      0.00000484
         4         4         3         3         3         1     -0.00000026
         4         4         3         3         3         2      0.00002979
         4         4         3         3         3         3     -0.00404732
         4         4         3         3         3         4     -0.00001362
         4         4         3         3         4         1     -0.00000825
         4         4         3         3         4         2      0.00000484
         4         4         3         3         4         3     -0.00001362
         4         4         3         3         4         4     -0.00407710
         4         4         4         4         1         1     -0.00799540
         4         4         4         4         1         2      0.00000244
         4         4         4         4         1         3     -0.00000000
         4         4         4         4         1         4     -0.00001174
         4         4         4         4         2         1      0.00000244
         4         4         4         4         2         2     -0.00418414
         4         4         4         4         2         3      0.00000000
         4         4         4         4         2         4     -0.00002475
         4         4         4         4         3         1     -0.00000000
         4         4         4         4         3         2      0.00000000
         4         4         4         4         3         3     -0.00414188
         4         4         4         4         3         4      0.00000000
         4         4         4         4         4         1     -0.00001174
         4         4         4         4         4         2     -0.00002475
         4         4         4         4         4         3      0.00000000
         4         4         4         4         4         4     -0.00415992
         4         4         5         5         1         1     -0.00827012
         4         4         5         5         1         2      0.00000000
         4         4         5         5         1         3      0.00000069
         4         4         5         5         1         4      0.00000370
         4         4         5         5         2         1      0.00000000
         4         4         5         5         2         2     -0.00394337
         4         4         5         5         2         3     -0.00000000
         4         4         5         5         2         4     -0.00000000
         4         4         5         5         3         1      0.00000069
         4         4         5         5         3         2     -0.00000000
         4         4         5         5         3         3     -0.00397125
         4         4         5         5         3         4     -0.00000286
         4         4         5         5         4         1      0.00000370
         4         4         5         5         4         2     -0.00000000
         4         4         5         5         4         3     -0.00000286
         4         4         5         5         4         4     -0.00394596
         4         4         6         6         1         1     -0.00799472
         4         4         6         6         1         2     -0.00000254
         4         4         6         6         1         3      0.00000460
         4         4         6         6         1         4     -0.00000019
         4         4         6         6         2         1     -0.00000254
         4         4         6         6         2         2     -0.00398484
         4         4         6         6         2         3     -0.00000833
         4         4         6         6         2         4     -0.00001286
         4         4         6         6         3         1      0.00000460
         4         4         6         6         3         2     -0.00000833
         4         4         6         6         3         3     -0.00401776
         4         4         6         6         3         4      0.00003418
         4         4         6         6         4         1     -0.00000019
         4         4         6         6         4         2     -0.00001286
         4         4         6         6         4         3      0.00003418
         4         4         6         6         4         4     -0.00399285
         4         4         7         7         1         1     -0.00799472
         4         4         7         7         1         2     -0.00000254
         4         4         7         7         1         3      0.00000460
         4         4         7         7         1         4     -0.00000019
         4         4         7         7         2         1     -0.00000254
         4         4         7         7         2         2     -0.00398484
         4         4         7         7         2         3     -0.00000833
         4         4         7         7         2         4     -0.00001286
         4         4         7         7         3         1      0.00000460
         4         4         7         7         3         2     -0.00000833
         4         4         7         7         3         3     -0.00401776
         4         4         7         7         3         4      0.00003418
         4         4         7         7         4         1     -0.00000019
         4         4         7         7         4         2     -0.00001286
         4         4         7         7         4         3      0.00003418
         4         4         7         7         4         4     -0.00399285
         4         4         8         8         1         1     -0.00773103
         4         4         8         8         1         2     -0.00000055
         4         4         8         8         1         3      0.00000101
         4         4         8         8         1         4     -0.00000464
         4         4         8         8         2         1     -0.00000055
         4         4         8         8         2         2     -0.00407455
         4         4         8         8         2         3      0.00000406
         4         4         8         8         2         4     -0.00001532
         4         4         8         8         3         1      0.00000101
         4         4         8         8         3         2      0.00000406
         4         4         8         8         3         3     -0.00407973
         4         4         8         8         3         4      0.00002793
         4         4         8         8         4         1     -0.00000464
         4         4         8         8         4         2     -0.00001532
         4         4         8         8         4         3      0.00002793
         4         4         8         8         4         4     -0.00404853
         5         5         1         1         1         1     -0.00846532
         5         5         1         1         1         2     -0.00000009
         5         5         1         1         1         3      0.00000010
         5         5         1         1         1         4      0.00000513
         5         5         1         1         2         1     -0.00000009
         5         5         1         1         2         2     -0.00405612
         5         5         1         1         2         3      0.00000337
         5         5         1         1         2         4      0.00002278
         5         5         1         1         3         1      0.00000010
         5         5         1         1         3         2      0.00000337
         5         5         1         1         3         3     -0.00405702
         5         5         1         1         3         4     -0.00002601
         5         5         1         1         4         1      0.00000513
         5         5         1         1         4         2      0.00002278
         5         5         1         1         4         3     -0.00002601
         5         5         1         1         4         4     -0.00402698
         5         5         2         2         1         1     -0.00818160
         5         5         2         2         1         2      0.00000441
         5         5         2         2         1         3      0.00000217
         5         5         2         2         1         4      0.00000103
         5         5         2         2         2         1      0.00000441
         5         5         2         2         2         2     -0.00399564
         5         5         2         2         2         3     -0.00001734
         5         5         2         2         2         4      0.00003354
         5         5         2         2         3         1      0.00000217
         5         5         2         2         3         2     -0.00001734
         5         5         2         2         3         3     -0.00397835
         5         5         2         2         3         4      0.00000602
         5         5         2         2         4         1      0.00000103
         5         5         2         2         4         2      0.00003354
         5         5         2         2         4         3      0.00000602
         5         5         2         2         4         4     -0.00395596
         5         5         3         3         1         1     -0.00818160
         5         5         3         3         1         2      0.00000441
         5         5         3         3         1         3      0.00000217
         5         5         3         3         1         4      0.00000103
         5         5         3         3         2         1      0.00000441
         5         5         3         3         2         2     -0.00399564
         5         5         3         3         2         3     -0.00001734
         5         5         3         3         2         4      0.00003354
         5         5         3         3         3         1      0.00000217
         5         5         3         3         3         2     -0.00001734
         5         5         3         3         3         3     -0.00397835
         5         5         3         3         3         4      0.00000602
         5         5         3         3         4         1      0.00000103
         5         5         3         3         4         2      0.00003354
         5         5         3         3         4         3      0.00000602
         5         5         3         3         4         4     -0.00395596
         5         5         4         4         1         1     -0.00790984
         5         5         4         4         1         2     -0.00000288
         5         5         4         4         1         3     -0.00000000
         5         5         4         4         1         4      0.00000279
         5         5         4         4         2         1     -0.00000288
         5         5         4         4         2         2     -0.00393905
         5         5         4         4         2         3      0.00000000
         5         5         4         4         2         4     -0.00001320
         5         5         4         4         3         1     -0.00000000
         5         5         4         4         3         2      0.00000000
         5         5         4         4         3         3     -0.00392385
         5         5         4         4         3         4      0.00000000
         5         5         4         4         4         1      0.00000279
         5         5         4         4         4         2     -0.00001320
         5         5         4         4         4         3      0.00000000
         5         5         4         4         4         4     -0.00393125
         5         5         5         5         1         1     -0.00818223
         5         5         5         5         1         2      0.00000000
         5         5         5         5         1         3      0.00000506
         5         5         5         5         1         4     -0.00001103
         5         5         5         5         2         1      0.00000000
         5         5         5         5         2         2     -0.00412261
         5         5         5         5         2         3     -0.00000000
         5         5         5         5         2         4     -0.00000000
         5         5         5         5         3         1      0.00000506
         5         5         5         5         3         2     -0.00000000
         5         5         5         5         3         3     -0.00417713
         5         5         5         5         3         4     -0.00000162
         5         5         5         5         4         1     -0.00001103
         5         5         5         5         4         2     -0.00000000
         5         5         5         5         4         3     -0.00000162
         5         5         5         5         4         4     -0.00411934
         5         5         6         6         1         1     -0.00791068
         5         5         6         6         1         2      0.00000528
         5         5         6         6         1         3     -0.00000023
         5         5         6         6         1         4     -0.00000641
         5         5         6         6         2         1      0.00000528
         5         5         6         6         2         2     -0.00405209
         5         5         6         6         2         3     -0.00002509
         5         5         6         6         2         4      0.00001917
         5         5         6         6         3         1     -0.00000023
         5         5         6         6         3         2     -0.00002509
         5         5         6         6         3         3     -0.00405603
         5         5         6         6         3         4     -0.00001204
         5         5         6         6         4         1     -0.00000641
         5         5         6         6         4         2      0.00001917
         5         5         6         6         4         3     -0.00001204
         5         5         6         6         4         4     -0.00402853
         5         5         7         7         1         1     -0.00791068
         5         5         7         7         1         2      0.00000528
         5         5         7         7         1         3     -0.00000023
         5         5         7         7         1         4     -0.00000641
         5         5         7         7         2         1      0.00000528
         5         5         7         7         2         2     -0.00405209
         5         5         7         7         2         3     -0.00002509
         5         5         7         7         2         4      0.00001917
         5         5         7         7         3         1     -0.00000023
         5         5         7         7         3         2     -0.00002509
         5         5         7         7         3         3     -0.00405603
         5         5         7         7         3         4     -0.00001204
         5         5         7         7         4         1     -0.00000641
         5         5         7         7         4         2      0.00001917
         5         5         7         7         4         3     -0.00001204
         5         5         7         7         4         4     -0.00402853
         5         5         8         8         1         1     -0.00765006
         5         5         8         8         1         2      0.00000007
         5         5         8         8         1         3     -0.00000014
         5         5         8         8         1         4     -0.00000267
         5         5         8         8         2         1      0.00000007
         5         5         8         8         2         2     -0.00395564
         5         5         8         8         2         3      0.00003150
         5         5         8         8         2         4      0.00000703
         5         5         8         8         3         1     -0.00000014
         5         5         8         8         3         2      0.00003150
         5         5         8         8         3         3     -0.00399580
         5         5         8         8         3         4     -0.00001282
         5         5         8         8         4         1     -0.00000267
         5         5         8         8         4         2      0.00000703
         5         5         8         8         4         3     -0.00001282
         5         5         8         8         4         4     -0.00397661
         6         6         1         1         1         1     -0.00855817
         6         6         1         1         1         2     -0.00000028
         6         6         1         1         1         3     -0.00000082
         6         6         1         1         1         4      0.00000342
         6         6         1         1         2         1     -0.00000028
         6         6         1         1         2         2     -0.00396640
         6         6         1         1         2         3     -0.00002481
         6         6         1         1         2         4     -0.00000553
         6         6         1         1         3         1     -0.00000082
         6         6         1         1         3         2     -0.00002481
         6         6         1         1         3         3     -0.00403089
         6         6         1         1         3         4     -0.00001626
         6         6         1         1         4         1      0.00000342
         6         6         1         1         4         2     -0.00000553
         6         6         1         1         4         3     -0.00001626
         6         6         1         1         4         4     -0.00399997
         6         6         2         2         1         1     -0.00827090
         6         6         2         2         1         2     -0.00000021
         6         6         2         2         1         3     -0.00000026
         6         6         2         2         1         4     -0.00000825
         6         6         2         2         2         1     -0.00000021
         6         6         2         2         2         2     -0.00408178
         6         6         2         2         2         3     -0.00002979
         6         6         2         2         2         4     -0.00000484
         6         6         2         2         3         1     -0.00000026
         6         6         2         2         3         2     -0.00002979
         6         6         2         2         3         3     -0.00404732
         6         6         2         2         3         4     -0.00001362
         6         6         2         2         4         1     -0.00000825
         6         6         2         2         4         2     -0.00000484
         6         6         2         2         4         3     -0.00001362
         6         6         2         2         4         4     -0.00407710
         6         6         3         3         1         1     -0.00827012
         6         6         3         3         1         2     -0.00000000
         6         6         3         3         1         3      0.00000069
         6         6         3         3         1         4      0.00000370
         6         6         3         3         2         1     -0.00000000
         6         6         3         3         2         2     -0.00394337
         6         6         3         3         2         3     -0.00000000
         6         6         3         3         2         4      0.00000000
         6         6         3         3         3         1      0.00000069
         6         6         3         3         3         2     -0.00000000
         6         6         3         3         3         3     -0.00397125
         6         6         3         3         3         4     -0.00000286
         6         6         3         3         4         1      0.00000370
         6         6         3         3         4         2      0.00000000
         6         6         3         3         4         3     -0.00000286
         6         6         3         3         4         4     -0.00394596
         6         6         4         4         1         1     -0.00799472
         6         6         4         4         1         2     -0.00000254
         6         6         4         4         1         3      0.00000460
         6         6         4         4         1         4     -0.00000019
         6         6         4         4         2         1     -0.00000254
         6         6         4         4         2         2     -0.00398484
         6         6         4         4         2         3     -0.00000833
         6         6         4         4         2         4     -0.00001286
         6         6         4         4         3         1      0.00000460
         6         6         4         4         3         2     -0.00000833
         6         6         4         4         3         3     -0.00401776
         6         6         4         4         3         4      0.00003418
         6         6         4         4         4         1     -0.00000019
         6         6         4         4         4         2     -0.00001286
         6         6         4         4         4         3      0.00003418
         6         6         4         4         4         4     -0.00399285
         6         6         5         5         1         1     -0.00827090
         6         6         5         5         1         2      0.00000021
         6         6         5         5         1         3     -0.00000026
         6         6         5         5         1         4     -0.00000825
         6         6         5         5         2         1      0.00000021
         6         6         5         5         2         2     -0.00408178
         6         6         5         5         2         3      0.00002979
         6         6         5         5         2         4      0.00000484
         6         6         5         5         3         1     -0.00000026
         6         6         5         5         3         2      0.00002979
         6         6         5         5         3         3     -0.00404732
         6         6         5         5         3         4     -0.00001362
         6         6         5         5         4         1     -0.00000825
         6         6         5         5         4         2      0.00000484
         6         6         5         5         4         3     -0.00001362
         6         6         5         5         4         4     -0.00407710
         6         6         6         6         1         1     -0.00799540
         6         6         6         6         1         2      0.00000244
         6         6         6         6         1         3     -0.00000000
         6         6         6         6         1         4     -0.00001174
         6         6         6         6         2         1      0.00000244
         6         6         6         6         2         2     -0.00418414
         6         6         6         6         2         3      0.00000000
         6         6         6         6         2         4     -0.00002475
         6         6         6         6         3         1     -0.00000000
         6         6         6         6         3         2      0.00000000
         6         6         6         6         3         3     -0.00414188
         6         6         6         6         3         4      0.00000000
         6         6         6         6         4         1     -0.00001174
         6         6         6         6         4         2     -0.00002475
         6         6         6         6         4         3      0.00000000
         6         6         6         6         4         4     -0.00415992
         6         6         7         7         1         1     -0.00799472
         6         6         7         7         1         2     -0.00000254
         6         6         7         7         1         3     -0.00000460
         6         6         7         7         1         4     -0.00000019
         6         6         7         7         2         1     -0.00000254
         6         6         7         7         2         2     -0.00398484
         6         6         7         7         2         3      0.00000833
         6         6         7         7         2         4     -0.00001286
         6         6         7         7         3         1     -0.00000460
         6         6         7         7         3         2      0.00000833
         6         6         7         7         3         3     -0.00401776
         6         6         7         7         3         4     -0.00003418
         6         6         7         7         4         1     -0.00000019
         6         6         7         7         4         2     -0.00001286
         6         6         7         7         4         3     -0.00003418
         6         6         7         7         4         4     -0.00399285
         6         6         8         8         1         1     -0.00773103
         6         6         8         8         1         2     -0.00000060
         6         6         8         8         1         3     -0.00000098
         6         6         8         8         1         4     -0.00000464
         6         6         8         8         2         1     -0.00000060
         6         6         8         8         2         2     -0.00407491
         6         6         8         8         2         3     -0.00000427
         6         6         8         8         2         4     -0.00001653
         6         6         8         8         3         1     -0.00000098
         6         6         8         8         3         2     -0.00000427
         6         6         8         8         3         3     -0.00407936
         6         6         8         8         3         4     -0.00002723
         6         6         8         8         4         1     -0.00000464
         6         6         8         8         4         2     -0.00001653
         6         6         8         8         4         3     -0.00002723
[...]
         7         2         2         7         4         2     -0.00241833
         7         2         2         7         4         3     -0.00000000
         7         2         2         7         4         4      0.00310215
         7         2         3         6         1         1     -0.00808596
         7         2         3         6         1         2     -0.00002810
         7         2         3         6         1         3     -0.00000488
         7         2         3         6         1         4      0.00008130
         7         2         3         6         2         1     -0.00000488
         7         2         3         6         2         2     -0.00002606
         7         2         3         6         2         3      0.00406893
         7         2         3         6         2         4     -0.00001344
         7         2         3         6         3         1     -0.00002750
         7         2         3         6         3         2     -0.00319300
         7         2         3         6         3         3      0.00002818
         7         2         3         6         3         4     -0.00246858
         7         2         3         6         4         1      0.00008029
         7         2         3         6         4         2     -0.00251088
         7         2         3         6         4         3      0.00000538
         7         2         3         6         4         4      0.00319849
         7         2         4         5         1         1     -0.00808732
         7         2         4         5         1         2      0.00000937
         7         2         4         5         1         3     -0.00003339
         7         2         4         5         1         4      0.00006487
         7         2         4         5         2         1     -0.00001387
         7         2         4         5         2         2     -0.00000803
         7         2         4         5         2         3     -0.00314335
         7         2         4         5         2         4     -0.00243227
         7         2         4         5         3         1      0.00000939
         7         2         4         5         3         2      0.00400673
         7         2         4         5         3         3     -0.00001600
         7         2         4         5         3         4      0.00003232
         7         2         4         5         4         1      0.00007301
         7         2         4         5         4         2      0.00003597
         7         2         4         5         4         3     -0.00245644
         7         2         4         5         4         4      0.00313312
         7         2         5         4         1         1     -0.00808596
         7         2         5         4         1         2     -0.00002810
         7         2         5         4         1         3     -0.00000488
         7         2         5         4         1         4      0.00008130
         7         2         5         4         2         1     -0.00000488
         7         2         5         4         2         2     -0.00002606
         7         2         5         4         2         3      0.00406893
         7         2         5         4         2         4     -0.00001344
         7         2         5         4         3         1     -0.00002750
         7         2         5         4         3         2     -0.00319300
         7         2         5         4         3         3      0.00002818
         7         2         5         4         3         4     -0.00246858
         7         2         5         4         4         1      0.00008029
         7         2         5         4         4         2     -0.00251088
         7         2         5         4         4         3      0.00000538
         7         2         5         4         4         4      0.00319849
         7         2         6         3         1         1     -0.00808732
         7         2         6         3         1         2      0.00000937
         7         2         6         3         1         3     -0.00003339
         7         2         6         3         1         4      0.00006487
         7         2         6         3         2         1     -0.00001387
         7         2         6         3         2         2     -0.00000803
         7         2         6         3         2         3     -0.00314335
         7         2         6         3         2         4     -0.00243227
         7         2         6         3         3         1      0.00000939
         7         2         6         3         3         2      0.00400673
         7         2         6         3         3         3     -0.00001600
         7         2         6         3         3         4      0.00003232
         7         2         6         3         4         1      0.00007301
         7         2         6         3         4         2      0.00003597
         7         2         6         3         4         3     -0.00245644
         7         2         6         3         4         4      0.00313312
         7         2         7         2         1         1     -0.00808617
         7         2         7         2         1         2      0.00000000
         7         2         7         2         1         3     -0.00003705
         7         2         7         2         1         4      0.00008531
         7         2         7         2         2         1     -0.00002381
         7         2         7         2         2         2      0.00000000
         7         2         7         2         2         3     -0.00330622
         7         2         7         2         2         4     -0.00254222
         7         2         7         2         3         1      0.00000000
         7         2         7         2         3         2      0.00413230
         7         2         7         2         3         3      0.00000000
         7         2         7         2         3         4      0.00000000
         7         2         7         2         4         1      0.00009140
         7         2         7         2         4         2     -0.00000000
         7         2         7         2         4         3     -0.00257074
         7         2         7         2         4         4      0.00325726
         7         2         8         1         1         1     -0.00808539
         7         2         8         1         1         2     -0.00000623
         7         2         8         1         1         3     -0.00000123
         7         2         8         1         1         4     -0.00008121
         7         2         8         1         2         1     -0.00000620
         7         2         8         1         2         2      0.00397505
         7         2         8         1         2         3      0.00087858
         7         2         8         1         2         4      0.00003283
         7         2         8         1         3         1      0.00000014
         7         2         8         1         3         2     -0.00087716
         7         2         8         1         3         3      0.00396698
         7         2         8         1         3         4     -0.00000072
         7         2         8         1         4         1      0.00008520
         7         2         8         1         4         2     -0.00003294
         7         2         8         1         4         3     -0.00000653
         7         2         8         1         4         4     -0.00403741
         8         1         1         8         1         1     -0.00807953
         8         1         1         8         1         2     -0.00000000
         8         1         1         8         1         3      0.00000000
         8         1         1         8         1         4      0.00007462
         8         1         1         8         2         1     -0.00000000
         8         1         1         8         2         2      0.00384012
         8         1         1         8         2         3     -0.00084893
         8         1         1         8         2         4     -0.00000000
         8         1         1         8         3         1      0.00000000
         8         1         1         8         3         2      0.00084893
         8         1         1         8         3         3      0.00384012
         8         1         1         8         3         4      0.00000000
         8         1         1         8         4         1     -0.00007111
         8         1         1         8         4         2     -0.00000000
         8         1         1         8         4         3      0.00000000
         8         1         1         8         4         4     -0.00395892
         8         1         2         7         1         1     -0.00808199
         8         1         2         7         1         2     -0.00002957
         8         1         2         7         1         3      0.00000000
         8         1         2         7         1         4      0.00007524
         8         1         2         7         2         1      0.00000000
         8         1         2         7         2         2     -0.00000000
         8         1         2         7         2         3      0.00394738
         8         1         2         7         2         4     -0.00000000
         8         1         2         7         3         1     -0.00002273
         8         1         2         7         3         2     -0.00315252
         8         1         2         7         3         3      0.00000000
         8         1         2         7         3         4     -0.00243887
         8         1         2         7         4         1      0.00007675
         8         1         2         7         4         2     -0.00248551
         8         1         2         7         4         3      0.00000000
         8         1         2         7         4         4      0.00316816
         8         1         3         6         1         1     -0.00808199
         8         1         3         6         1         2     -0.00002957
         8         1         3         6         1         3      0.00000000
         8         1         3         6         1         4      0.00007524
         8         1         3         6         2         1      0.00000000
         8         1         3         6         2         2     -0.00000000
         8         1         3         6         2         3      0.00394738
         8         1         3         6         2         4      0.00000000
         8         1         3         6         3         1     -0.00002273
         8         1         3         6         3         2     -0.00315252
         8         1         3         6         3         3      0.00000000
         8         1         3         6         3         4     -0.00243887
         8         1         3         6         4         1      0.00007675
         8         1         3         6         4         2     -0.00248551
         8         1         3         6         4         3      0.00000000
         8         1         3         6         4         4      0.00316816
         8         1         4         5         1         1     -0.00808302
         8         1         4         5         1         2     -0.00000000
         8         1         4         5         1         3     -0.00004233
         8         1         4         5         1         4      0.00007678
         8         1         4         5         2         1     -0.00001442
         8         1         4         5         2         2     -0.00000000
         8         1         4         5         2         3     -0.00316656
         8         1         4         5         2         4     -0.00247115
         8         1         4         5         3         1     -0.00000000
         8         1         4         5         3         2      0.00406196
         8         1         4         5         3         3     -0.00000000
         8         1         4         5         3         4      0.00000000
         8         1         4         5         4         1      0.00008844
         8         1         4         5         4         2     -0.00000000
         8         1         4         5         4         3     -0.00251133
         8         1         4         5         4         4      0.00322821
         8         1         5         4         1         1     -0.00808199
         8         1         5         4         1         2     -0.00002957
         8         1         5         4         1         3      0.00000000
         8         1         5         4         1         4      0.00007524
         8         1         5         4         2         1     -0.00000000
         8         1         5         4         2         2     -0.00000000
         8         1         5         4         2         3      0.00394738
         8         1         5         4         2         4     -0.00000000
         8         1         5         4         3         1     -0.00002273
         8         1         5         4         3         2     -0.00315252
         8         1         5         4         3         3      0.00000000
         8         1         5         4         3         4     -0.00243887
         8         1         5         4         4         1      0.00007675
         8         1         5         4         4         2     -0.00248551
         8         1         5         4         4         3      0.00000000
         8         1         5         4         4         4      0.00316816
         8         1         6         3         1         1     -0.00808302
         8         1         6         3         1         2     -0.00000000
         8         1         6         3         1         3     -0.00004233
         8         1         6         3         1         4      0.00007678
         8         1         6         3         2         1     -0.00001442
         8         1         6         3         2         2     -0.00000000
         8         1         6         3         2         3     -0.00316656
         8         1         6         3         2         4     -0.00247115
         8         1         6         3         3         1      0.00000000
         8         1         6         3         3         2      0.00406196
         8         1         6         3         3         3      0.00000000
         8         1         6         3         3         4      0.00000000
         8         1         6         3         4         1      0.00008844
         8         1         6         3         4         2     -0.00000000
         8         1         6         3         4         3     -0.00251133
         8         1         6         3         4         4      0.00322821
         8         1         7         2         1         1     -0.00808302
         8         1         7         2         1         2     -0.00000000
         8         1         7         2         1         3     -0.00004233
         8         1         7         2         1         4      0.00007678
         8         1         7         2         2         1     -0.00001442
         8         1         7         2         2         2     -0.00000000
         8         1         7         2         2         3     -0.00316656
         8         1         7         2         2         4     -0.00247115
         8         1         7         2         3         1      0.00000000
         8         1         7         2         3         2      0.00406196
         8         1         7         2         3         3      0.00000000
         8         1         7         2         3         4      0.00000000
         8         1         7         2         4         1      0.00008844
         8         1         7         2         4         2     -0.00000000
         8         1         7         2         4         3     -0.00251133
         8         1         7         2         4         4      0.00322821
         8         1         8         1         1         1     -0.00808263
         8         1         8         1         1         2     -0.00000000
         8         1         8         1         1         3     -0.00000000
         8         1         8         1         1         4     -0.00009351
         8         1         8         1         2         1     -0.00000000
         8         1         8         1         2         2      0.00403406
         8         1         8         1         2         3      0.00089181
         8         1         8         1         2         4     -0.00000000
         8         1         8         1         3         1      0.00000000
         8         1         8         1         3         2     -0.00089181
         8         1         8         1         3         3      0.00403406
         8         1         8         1         3         4      0.00000000
         8         1         8         1         4         1      0.00009784
         8         1         8         1         4         2      0.00000000
         8         1         8         1         4         3      0.00000000
         8         1         8         1         4         4     -0.00418680


 RESULTS
 =======

  Reference energy                    -22.841273440359
  CCD singlet pair energy              -0.259475881301
  CCD triplet pair energy              -0.000066600787
  CCD correlation energy               -0.259542482088

 !CCD total energy                    -23.100815922447

 Timing summary (sec):

 STEP                 CPU(USER)    SYS     CPU(TOT)    WALL
 Transformation          0.01      0.01      0.02      0.01
 CCSD iterations         0.12      0.02      0.14      0.16

 Program statistics:

 Available memory in ccsd:                39998944
 Min. memory needed in ccsd:                 17807
 Max. memory used in ccsd:                   21999
 Max. memory used in cckext:                 49035 (11 integral passes)



 **********************************************************************************************************************************
 DATASETS  * FILE   NREC   LENGTH (MB)   RECORD NAMES
              1      20       30.61       500      700      610      900      950      970     1000      129      960     1100   
                                          VAR     GEOM    BASINP   SYMINP    ZMAT    AOBASIS   BASIS     P2S    ABASIS      S 
                                         1400     1410     1200     1210     1080     1600     1650     1300     1700     1380   
                                           T        V       H0       H01     AOSYM     SMH    MOLCAS    ERIS     OPER     JKOP   

              3       5       14.89       500      610      700     1000     2100   
                                          VAR    BASINP    GEOM     BASIS     RHF  

 PROGRAMS   *        TOTAL      CCSD       INT   RESTART
 CPU TIMES  *         0.58      0.21      0.25      0.02
 REAL TIME  *         0.75 SEC
 DISK USED  *        50.37 MB
 **********************************************************************************************************************************
 Molecular orbitals read from record     2100.3  Type=RHF/CANONICAL (state 1.1)
 Occupation numbers read from record     2100.3  Type=RHF/RHF (state 1.1)
 Orbital energies read from record       2100.3  Type=RHF/CANONICAL (state 1.1)
 Redundancy group numbers read from rec  2100.3  Type=RHF/RHF (state 1.1)

 CCSD/cc-pVDZ energy=    -23.100815922447

            CCSD
    -23.10081592
 **********************************************************************************************************************************
 Molpro calculation terminated
