
 Primary working directories    : /scr/yuriaoto/job.023418/molpro.SkHQuaVxaC
 Secondary working directories  : /scr/yuriaoto/job.023418/molpro.SkHQuaVxaC
 Wavefunction directory         : /scr/yuriaoto/job.023418/
 Main file repository           : /scr/yuriaoto/job.023418/molpro.SkHQuaVxaC/

 id        : yuriaoto

 Nodes             nprocs
 t-rex.ufabc.int.br    1

 Using customized tuning parameters: mindgm=8; mindgv=16; mindgc=1; mindgr=1; noblas=0; minvec=7
 default implementation of scratch files=df  


 Variables initialized (933), CPU time= 0.00 sec
 ***,
 memory,40,m
 gprint,orbital,basis,civector
 gthresh,thrprint=0,printci=0.0
 file,3,wfu.dat,old
 
 {ccsd,CC_NORM_MAX=10000.0
 thresh,printci=0.0,ENERGY=1.0E-10,COEFF=1.0E-12
 print,ref=1
 wf,16,1,0;
 }
 
 Commands  initialized (760), CPU time= 0.01 sec, 617 directives.
 Default parameters read. Elapsed time= 0.04 sec

 Checking input...
 Passed
1


                                         ***  PROGRAM SYSTEM MOLPRO  ***
                                       Copyright, TTI GmbH Stuttgart, 2015
                                    Version 2019.2 linked Abr  7 2019 15:10:35


 **********************************************************************************************************************************
 LABEL *                                                                                 
  64 bit serial version                                                                  DATE: 02-Jun-20          TIME: 00:26:46  
 **********************************************************************************************************************************

 SHA1:             3a8a58c585c929645742fb5a1b7541a4ad1da699
 **********************************************************************************************************************************


 THRESHOLDS:

 ZERO    =  1.00D-12  ONEINT  =  1.00D-12  TWOINT  =  1.00D-11  PREFAC  =  1.00D-14  XXXXXX  =  1.00D-09  EORDER  =  1.00D-04
 ENERGY  =  0.00D+00  ETEST   =  0.00D+00  EDENS   =  0.00D+00  THRDEDEF=  1.00D-06  GRADIENT=  1.00D-02  STEP    =  1.00D-03
 ORBITAL =  1.00D-05  CIVEC   =  1.00D-05  COEFF   =  1.00D-04  PRINTCI =  0.00D+00  PUNCHCI =  9.90D+01  OPTGRAD =  3.00D-04
 OPTENERG=  1.00D-06  OPTSTEP =  3.00D-04  THRGRAD =  1.00D-10  COMPRESS=  1.00D-11  VARMIN  =  1.00D-07  VARMAX  =  1.00D-03
 THRDOUB =  0.00D+00  THRDIV  =  1.00D-05  THRRED  =  1.00D-07  THRPSP  =  1.00D+00  THRDC   =  1.00D-10  THRCS   =  1.00D-10
 THRNRM  =  1.00D-08  THREQ   =  0.00D+00  THRDE   =  1.00D+00  THRREF  =  1.00D-05  SPARFAC =  1.00D+00  THRDLP  =  1.00D-07
 THRDIA  =  1.00D-10  THRDLS  =  1.00D-07  THRGPS  =  0.00D+00  THRKEX  =  0.00D+00  THRDIS  =  2.00D-01  THRVAR  =  1.00D-10
 THRLOC  =  1.00D-06  THRGAP  =  1.00D-06  THRLOCT = -1.00D+00  THRGAPT = -1.00D+00  THRORB  =  1.00D-06  THRMLTP =  0.00D+00
 THRCPQCI=  1.00D-10  KEXTA   =  0.00D+00  THRCOARS=  0.00D+00  SYMTOL  =  1.00D-06  GRADTOL =  1.00D-06  THROVL  =  1.00D-08
 THRORTH =  1.00D-08  GRID    =  1.00D-06  GRIDMAX =  1.00D-03  DTMAX   =  0.00D+00  THROCCDE=  1.00D-01  THROCCDE=  1.00D-01
 THRPRINT=  0.00D+00


 Variable memory set to   40000000 words,  buffer space 



 Permanent file  3  wfu.dat  assigned.  Implementation=df    Size= 14.20 MB


 PROGRAM * RESTART 


 Reading variables from file 3

 _FNUC           =      0.00000000
 _BASIS          =    CC-PVDZ
 _NELEC          =     16.00000000
 _PROGRAM        =    RHF-SCF
 _DMZ            =      0.00000000
 _DMX_SCF        =      0.00000000
 _DMY_SCF        =      0.00000000
 _DMZ_SCF        =      0.00000000
 _HOMO           =      1.80000000
 _EHOMO          =     -0.90875099
 _LUMO           =      2.10000000
 _ELUMO          =      1.32506671
 _ENERGY         =    -22.84127344
 _ENERGY_METHOD  =    RHF
 _ENERGY_BASIS   =    cc-pVDZ
 _ENUC           =     16.08323531
 _EPS1(1:5)      =     -0.91973204     1.32506671     2.52435041     2.52435041     2.52440812
 _EPS2(1:5)      =     -0.91593984     1.37330839     2.52434859     2.52437180     2.52443669
 _EPS3(1:5)      =     -0.91593984     1.37330839     2.52434859     2.52437180     2.52443669
 _EPS4(1:5)      =     -0.91228103     1.42287575     2.52435723     2.52439641     2.52445206
 _EPS5(1:5)      =     -0.91593984     1.37330839     2.52434859     2.52437180     2.52443669
 _EPS6(1:5)      =     -0.91228103     1.42287575     2.52435723     2.52439641     2.52445206
 _EPS7(1:5)      =     -0.91228103     1.42287575     2.52435723     2.52439641     2.52445206
 _EPS8(1:5)      =     -0.90875099     1.47382765     2.52439461     2.52439461     2.52446567
 _IPROC_MPP      =      0.00000000
 _IPROC_MPPX     =      0.00000000
 _ORBITAL        =   2100.30000000
 _STATUS         =      1.00000000
 _DATE           =    23-Mar-20
 _LASTORB        =    RHF
 _OUTPUT         =    /scr/yuriaoto/job.022846/RHF.xml
 _PGROUP         =    D2h 
 _TIME           =    15:35:31
 R               =      1.50000000

 Geometry written to block  1 of record 700


 **********************************************************************************************************************************
 DATASETS  * FILE   NREC   LENGTH (MB)   RECORD NAMES
              3       5       14.89       500      610      700     1000     2100   
                                          VAR    BASINP    GEOM     BASIS     RHF  

 PROGRAMS   *        TOTAL   RESTART
 CPU TIMES  *         0.12      0.02
 REAL TIME  *         0.15 SEC
 DISK USED  *        26.99 MB
 **********************************************************************************************************************************


 Recomputing integrals since basis changed


 Using spherical harmonics

 Library entry HE     S cc-pVDZ              selected for orbital group  1
 Library entry HE     P cc-pVDZ              selected for orbital group  1


 PROGRAM * SEWARD (Integral evaluation for generally contracted gaussian basis sets)     Author: Roland Lindh, 1990

 Geometry written to block  1 of record 700


 Point group  D2h 



 ATOMIC COORDINATES

 NR  ATOM    CHARGE       X              Y              Z

   1  HE1     2.00    2.834589187    2.834589187    2.834589187
   2  HE2     2.00   -2.834589187   -2.834589187    2.834589187
   3  HE3     2.00    2.834589187   -2.834589187    2.834589187
   4  HE4     2.00   -2.834589187    2.834589187    2.834589187
   5  HE5     2.00    2.834589187    2.834589187   -2.834589187
   6  HE6     2.00   -2.834589187   -2.834589187   -2.834589187
   7  HE7     2.00    2.834589187   -2.834589187   -2.834589187
   8  HE8     2.00   -2.834589187    2.834589187   -2.834589187


 BASIS DATA

   Nr Sym  Nuc  Type         Exponents   Contraction coefficients

    1.1 Ag    1  1s          38.360000     0.023809    0.000000
    2.1 Ag    2  1s           5.770000     0.154891    0.000000
              3  1s           1.240000     0.469987    0.000000
              4  1s           0.297600     0.513027    1.000000
              5  1s    
              6  1s    
              7  1s    
              8  1s    
    3.1 Ag    1  2px          1.275000     1.000000
              2 -2px   
              3  2px   
              4 -2px   
              5  2px   
              6 -2px   
              7  2px   
              8 -2px   
    4.1 Ag    1  2py          1.275000     1.000000
              2 -2py   
              3 -2py   
              4  2py   
              5  2py   
              6 -2py   
              7 -2py   
              8  2py   
    5.1 Ag    1  2pz          1.275000     1.000000
              2  2pz   
              3  2pz   
              4  2pz   
              5 -2pz   
              6 -2pz   
              7 -2pz   
              8 -2pz   
    1.2 B3u   1  1s          38.360000     0.023809    0.000000
    2.2 B3u   2 -1s           5.770000     0.154891    0.000000
              3  1s           1.240000     0.469987    0.000000
              4 -1s           0.297600     0.513027    1.000000
              5  1s    
              6 -1s    
              7  1s    
              8 -1s    
    3.2 B3u   1  2px          1.275000     1.000000
              2  2px   
              3  2px   
              4  2px   
              5  2px   
              6  2px   
              7  2px   
              8  2px   
    4.2 B3u   1  2py          1.275000     1.000000
              2  2py   
              3 -2py   
              4 -2py   
              5  2py   
              6  2py   
              7 -2py   
              8 -2py   
    5.2 B3u   1  2pz          1.275000     1.000000
              2 -2pz   
              3  2pz   
              4 -2pz   
              5 -2pz   
              6  2pz   
              7 -2pz   
              8  2pz   
    1.3 B2u   1  1s          38.360000     0.023809    0.000000
    2.3 B2u   2 -1s           5.770000     0.154891    0.000000
              3 -1s           1.240000     0.469987    0.000000
              4  1s           0.297600     0.513027    1.000000
              5  1s    
              6 -1s    
              7 -1s    
              8  1s    
    3.3 B2u   1  2py          1.275000     1.000000
              2  2py   
              3  2py   
              4  2py   
              5  2py   
              6  2py   
              7  2py   
              8  2py   
    4.3 B2u   1  2px          1.275000     1.000000
              2  2px   
              3 -2px   
              4 -2px   
              5  2px   
              6  2px   
              7 -2px   
              8 -2px   
    5.3 B2u   1  2pz          1.275000     1.000000
              2 -2pz   
              3 -2pz   
              4  2pz   
              5 -2pz   
              6  2pz   
              7  2pz   
              8 -2pz   
    1.4 B1g   1  1s          38.360000     0.023809    0.000000
    2.4 B1g   2  1s           5.770000     0.154891    0.000000
              3 -1s           1.240000     0.469987    0.000000
              4 -1s           0.297600     0.513027    1.000000
              5  1s    
              6  1s    
              7 -1s    
              8 -1s    
    3.4 B1g   1  2py          1.275000     1.000000
              2 -2py   
              3  2py   
              4 -2py   
              5  2py   
              6 -2py   
              7  2py   
              8 -2py   
    4.4 B1g   1  2px          1.275000     1.000000
              2 -2px   
              3 -2px   
              4  2px   
              5  2px   
              6 -2px   
              7 -2px   
              8  2px   
    5.4 B1g   1  2pz          1.275000     1.000000
              2  2pz   
              3 -2pz   
              4 -2pz   
              5 -2pz   
              6 -2pz   
              7  2pz   
              8  2pz   
    1.5 B1u   1  1s          38.360000     0.023809    0.000000
    2.5 B1u   2  1s           5.770000     0.154891    0.000000
              3  1s           1.240000     0.469987    0.000000
              4  1s           0.297600     0.513027    1.000000
              5 -1s    
              6 -1s    
              7 -1s    
              8 -1s    
    3.5 B1u   1  2pz          1.275000     1.000000
              2  2pz   
              3  2pz   
              4  2pz   
              5  2pz   
              6  2pz   
              7  2pz   
              8  2pz   
    4.5 B1u   1  2px          1.275000     1.000000
              2 -2px   
              3  2px   
              4 -2px   
              5 -2px   
              6  2px   
              7 -2px   
              8  2px   
    5.5 B1u   1  2py          1.275000     1.000000
              2 -2py   
              3 -2py   
              4  2py   
              5 -2py   
              6  2py   
              7  2py   
              8 -2py   
    1.6 B2g   1  1s          38.360000     0.023809    0.000000
    2.6 B2g   2 -1s           5.770000     0.154891    0.000000
              3  1s           1.240000     0.469987    0.000000
              4 -1s           0.297600     0.513027    1.000000
              5 -1s    
              6  1s    
              7 -1s    
              8  1s    
    3.6 B2g   1  2pz          1.275000     1.000000
              2 -2pz   
              3  2pz   
              4 -2pz   
              5  2pz   
              6 -2pz   
              7  2pz   
              8 -2pz   
    4.6 B2g   1  2px          1.275000     1.000000
              2  2px   
              3  2px   
              4  2px   
              5 -2px   
              6 -2px   
              7 -2px   
              8 -2px   
    5.6 B2g   1  2py          1.275000     1.000000
              2  2py   
              3 -2py   
              4 -2py   
              5 -2py   
              6 -2py   
              7  2py   
              8  2py   
    1.7 B3g   1  1s          38.360000     0.023809    0.000000
    2.7 B3g   2 -1s           5.770000     0.154891    0.000000
              3 -1s           1.240000     0.469987    0.000000
              4  1s           0.297600     0.513027    1.000000
              5 -1s    
              6  1s    
              7  1s    
              8 -1s    
    3.7 B3g   1  2pz          1.275000     1.000000
              2 -2pz   
              3 -2pz   
              4  2pz   
              5  2pz   
              6 -2pz   
              7 -2pz   
              8  2pz   
    4.7 B3g   1  2py          1.275000     1.000000
              2  2py   
              3  2py   
              4  2py   
              5 -2py   
              6 -2py   
              7 -2py   
              8 -2py   
    5.7 B3g   1  2px          1.275000     1.000000
              2  2px   
              3 -2px   
              4 -2px   
              5 -2px   
              6 -2px   
              7  2px   
              8  2px   
    1.8 Au    1  1s          38.360000     0.023809    0.000000
    2.8 Au    2  1s           5.770000     0.154891    0.000000
              3 -1s           1.240000     0.469987    0.000000
              4 -1s           0.297600     0.513027    1.000000
              5 -1s    
              6 -1s    
              7  1s    
              8  1s    
    3.8 Au    1  2pz          1.275000     1.000000
              2  2pz   
              3 -2pz   
              4 -2pz   
              5  2pz   
              6  2pz   
              7 -2pz   
              8 -2pz   
    4.8 Au    1  2py          1.275000     1.000000
              2 -2py   
              3  2py   
              4 -2py   
              5 -2py   
              6  2py   
              7 -2py   
              8  2py   
    5.8 Au    1  2px          1.275000     1.000000
              2 -2px   
              3 -2px   
              4  2px   
              5 -2px   
              6  2px   
              7  2px   
              8 -2px   

 NUCLEAR CHARGE:                   16
 NUMBER OF PRIMITIVE AOS:          56
 NUMBER OF SYMMETRY AOS:           56
 NUMBER OF CONTRACTIONS:           40   (    5Ag  +    5B3u +    5B2u +    5B1g +    5B1u +    5B2g +    5B3g +    5Au  )
 NUMBER OF CORE ORBITALS:           0   (    0Ag  +    0B3u +    0B2u +    0B1g +    0B1u +    0B2g +    0B3g +    0Au  )
 NUMBER OF VALENCE ORBITALS:        8   (    1Ag  +    1B3u +    1B2u +    1B1g +    1B1u +    1B2g +    1B3g +    1Au  )


 NUCLEAR REPULSION ENERGY   16.08323531

 Eigenvalues of metric

         1 0.114E+00 0.100E+01 0.100E+01 0.100E+01 0.192E+01
         2 0.112E+00 0.100E+01 0.100E+01 0.100E+01 0.190E+01
         3 0.112E+00 0.100E+01 0.100E+01 0.100E+01 0.190E+01
         4 0.110E+00 0.100E+01 0.100E+01 0.100E+01 0.188E+01
         5 0.112E+00 0.100E+01 0.100E+01 0.100E+01 0.190E+01
         6 0.110E+00 0.100E+01 0.100E+01 0.100E+01 0.188E+01
         7 0.110E+00 0.100E+01 0.100E+01 0.100E+01 0.188E+01
         8 0.108E+00 0.100E+01 0.100E+01 0.100E+01 0.186E+01


 Contracted 2-electron integrals neglected if value below      1.0D-11
 AO integral compression algorithm  1   Integral accuracy      1.0D-11

     0.786 MB (compressed) written to integral file ( 77.0%)


 NUMBER OF SORTED TWO-ELECTRON INTEGRALS:      46110.     BUFFER LENGTH:  32768
 NUMBER OF SEGMENTS:   1  SEGMENT LENGTH:      46110      RECORD LENGTH: 524288

 Memory used in sort:       0.60 MW

 SORT1 READ      154112. AND WROTE       46110. INTEGRALS IN      1 RECORDS. CPU TIME:     0.00 SEC, REAL TIME:     0.01 SEC
 SORT2 READ       46110. AND WROTE       46110. INTEGRALS IN      3 RECORDS. CPU TIME:     0.05 SEC, REAL TIME:     0.06 SEC

 FILE SIZES:   FILE 1:    30.9 MBYTE,  FILE 4:     4.2 MBYTE,   TOTAL:     35.1 MBYTE

 OPERATOR DM      FOR CENTER  0  COORDINATES:    0.000000    0.000000    0.000000


 **********************************************************************************************************************************
 DATASETS  * FILE   NREC   LENGTH (MB)   RECORD NAMES
              1      19       30.36       500      700      610      900      950      970     1000      129      960     1100   
                                          VAR     GEOM    BASINP   SYMINP    ZMAT    AOBASIS   BASIS     P2S    ABASIS      S 
                                         1400     1410     1200     1210     1080     1600     1650     1300     1700   
                                           T        V       H0       H01     AOSYM     SMH    MOLCAS    ERIS     OPER   

              3       5       14.89       500      610      700     1000     2100   
                                          VAR    BASINP    GEOM     BASIS     RHF  

 PROGRAMS   *        TOTAL       INT   RESTART
 CPU TIMES  *         0.39      0.27      0.02
 REAL TIME  *         0.56 SEC
 DISK USED  *        50.37 MB
 **********************************************************************************************************************************


 PROGRAM * CCSD (Closed-shell coupled cluster)     Authors: C. Hampel, H.-J. Werner, 1991, M. Deegan, P.J. Knowles, 1992


 Input parameters for THRESH:

 ENERGY   =    1.00D-10
 COEFF    =    1.00D-12
 PRINTCI  =    0.000000
 THRPRINT =    0.000000

 Convergence thresholds:  THRVAR = 1.00D-24  THRDEN = 1.00D-10

 Number of closed-shell orbitals:   8 (   1   1   1   1   1   1   1   1 )
 Number of external orbitals:      32 (   4   4   4   4   4   4   4   4 )

 Molecular orbitals read from record     2100.3  Type=RHF/CANONICAL (state 1.1)

 Number of N-1 electron functions:               8
 Number of N-2 electron functions:              36
 Number of singly external CSFs:                32
 Number of doubly external CSFs:              4224
 Total number of CSFs:                        4257

 Length of J-op  integral file:               0.00 MB
 Length of K-op  integral file:               0.04 MB
 Length of 3-ext integral record:             0.00 MB

 Integral transformation finished. Total CPU:   0.01 sec, npass=  1  Memory used:   0.10 MW

 Reference energy:                    -22.84127344

 MP2 singlet pair energy:              -0.20665136
 MP2 triplet pair energy:              -0.00005958
 MP2 correlation energy:               -0.20671094
 MP2 total energy:                    -23.04798438

 SCS-MP2 correlation energy:           -0.24801871   (PS=  1.200000  PT=  0.333333)
 SCS-MP2 total energy:                -23.08929215

 ITER.      SQ.NORM     CORR.ENERGY   TOTAL ENERGY   ENERGY CHANGE        DEN1      VAR(S)    VAR(P)  DIIS     TIME  TIME/IT
   1      1.05265880    -0.25721080   -23.09848424    -0.05049986    -0.04057028  0.26D-05  0.15D-02  1  1     0.03     0.01
   2      1.05832177    -0.25957336   -23.10084680    -0.00236256    -0.01210866  0.50D-06  0.42D-05  2  2     0.04     0.01
   3      1.05847929    -0.25955534   -23.10082878     0.00001802    -0.00016511  0.48D-08  0.92D-10  3  3     0.06     0.01
   4      1.05848348    -0.25956297   -23.10083641    -0.00000763    -0.00000806  0.28D-12  0.41D-11  4  4     0.07     0.01
   5      1.05848279    -0.25956166   -23.10083510     0.00000131     0.00000139  0.14D-13  0.74D-13  5  5     0.08     0.01
   6      1.05848267    -0.25956141   -23.10083485     0.00000025     0.00000025  0.21D-14  0.43D-15  6  6     0.09     0.01
   7      1.05848270    -0.25956147   -23.10083491    -0.00000007    -0.00000006  0.13D-18  0.18D-16  6  1     0.10     0.01
   8      1.05848270    -0.25956147   -23.10083491     0.00000000    -0.00000000  0.13D-18  0.11D-17  6  3     0.11     0.01
   9      1.05848270    -0.25956147   -23.10083491    -0.00000000     0.00000000  0.33D-20  0.33D-19  6  2     0.12     0.01
  10      1.05848270    -0.25956147   -23.10083491     0.00000000    -0.00000000  0.40D-22  0.59D-21  6  4     0.12     0.01
  11      1.05848270    -0.25956147   -23.10083491     0.00000000     0.00000000  0.26D-23  0.26D-23  6  5     0.13     0.01
  12      1.05848270    -0.25956147   -23.10083491     0.00000000     0.00000000  0.14D-24  0.55D-25  6  6     0.14     0.01

 Norm of t1 vector:      0.00314634      S-energy:     0.00000000      T1 diagnostic:  0.00055620
                                                                       D1 diagnostic:  0.00093872

 Singles amplitudes (print threshold =  0.000E+00):

         I         SYM. A    A   T(IA)

         1         1         1      0.00093871
         1         1         2      0.00000000
         1         1         3     -0.00000000
         1         1         4     -0.00000596
         2         2         1      0.00083190
         2         2         2      0.00000000
         2         2         3     -0.00000266
         2         2         4      0.00000522
         3         3         1      0.00083190
         3         3         2     -0.00000000
         3         3         3     -0.00000266
         3         3         4      0.00000522
         4         4         1      0.00072912
         4         4         2     -0.00000186
         4         4         3      0.00000000
         4         4         4      0.00000545
         5         5         1      0.00083190
         5         5         2     -0.00000000
         5         5         3     -0.00000266
         5         5         4      0.00000522
         6         6         1      0.00072912
         6         6         2     -0.00000186
         6         6         3      0.00000000
         6         6         4      0.00000545
         7         7         1      0.00072912
         7         7         2     -0.00000186
         7         7         3      0.00000000
         7         7         4      0.00000545
         8         8         1      0.00063030
         8         8         2     -0.00000000
         8         8         3      0.00000000
         8         8         4      0.00000567

 Doubles amplitudes (print threshold =  0.000E+00):

         I         J         SYM. A    SYM. B    A         B      T(IJ, AB)

         1         1         1         1         1         1     -0.00837424
         1         1         1         1         1         2     -0.00000000
         1         1         1         1         1         3     -0.00000000
         1         1         1         1         1         4      0.00001365
         1         1         1         1         2         1     -0.00000000
         1         1         1         1         2         2     -0.00409703
         1         1         1         1         2         3     -0.00000000
         1         1         1         1         2         4      0.00000000
         1         1         1         1         3         1     -0.00000000
         1         1         1         1         3         2     -0.00000000
         1         1         1         1         3         3     -0.00409703
         1         1         1         1         3         4     -0.00000000
         1         1         1         1         4         1      0.00001365
         1         1         1         1         4         2      0.00000000
         1         1         1         1         4         3     -0.00000000
         1         1         1         1         4         4     -0.00415263
         1         1         2         2         1         1     -0.00809333
         1         1         2         2         1         2     -0.00000000
         1         1         2         2         1         3      0.00000712
         1         1         2         2         1         4     -0.00000901
         1         1         2         2         2         1     -0.00000000
         1         1         2         2         2         2     -0.00402772
         1         1         2         2         2         3      0.00000000
         1         1         2         2         2         4      0.00000000
         1         1         2         2         3         1      0.00000712
         1         1         2         2         3         2      0.00000000
         1         1         2         2         3         3     -0.00400722
         1         1         2         2         3         4      0.00003532
         1         1         2         2         4         1     -0.00000901
         1         1         2         2         4         2      0.00000000
         1         1         2         2         4         3      0.00003532
         1         1         2         2         4         4     -0.00402990
         1         1         3         3         1         1     -0.00809333
         1         1         3         3         1         2      0.00000000
         1         1         3         3         1         3      0.00000712
         1         1         3         3         1         4     -0.00000901
         1         1         3         3         2         1      0.00000000
         1         1         3         3         2         2     -0.00402772
         1         1         3         3         2         3     -0.00000000
         1         1         3         3         2         4     -0.00000000
         1         1         3         3         3         1      0.00000712
         1         1         3         3         3         2     -0.00000000
         1         1         3         3         3         3     -0.00400722
         1         1         3         3         3         4      0.00003532
         1         1         3         3         4         1     -0.00000901
         1         1         3         3         4         2     -0.00000000
         1         1         3         3         4         3      0.00003532
         1         1         3         3         4         4     -0.00402990
         1         1         4         4         1         1     -0.00782371
         1         1         4         4         1         2      0.00000530
         1         1         4         4         1         3      0.00000000
         1         1         4         4         1         4     -0.00000534
         1         1         4         4         2         1      0.00000530
         1         1         4         4         2         2     -0.00398035
         1         1         4         4         2         3      0.00000000
         1         1         4         4         2         4      0.00002346
         1         1         4         4         3         1      0.00000000
         1         1         4         4         3         2      0.00000000
         1         1         4         4         3         3     -0.00391334
         1         1         4         4         3         4     -0.00000000
         1         1         4         4         4         1     -0.00000534
         1         1         4         4         4         2      0.00002346
         1         1         4         4         4         3     -0.00000000
         1         1         4         4         4         4     -0.00396307
         1         1         5         5         1         1     -0.00809333
         1         1         5         5         1         2      0.00000000
         1         1         5         5         1         3      0.00000712
         1         1         5         5         1         4     -0.00000901
         1         1         5         5         2         1      0.00000000
         1         1         5         5         2         2     -0.00402772
         1         1         5         5         2         3     -0.00000000
         1         1         5         5         2         4     -0.00000000
         1         1         5         5         3         1      0.00000712
         1         1         5         5         3         2     -0.00000000
         1         1         5         5         3         3     -0.00400722
         1         1         5         5         3         4      0.00003532
         1         1         5         5         4         1     -0.00000901
         1         1         5         5         4         2     -0.00000000
         1         1         5         5         4         3      0.00003532
         1         1         5         5         4         4     -0.00402990
         1         1         6         6         1         1     -0.00782371
         1         1         6         6         1         2      0.00000530
         1         1         6         6         1         3      0.00000000
         1         1         6         6         1         4     -0.00000534
         1         1         6         6         2         1      0.00000530
         1         1         6         6         2         2     -0.00398035
         1         1         6         6         2         3      0.00000000
         1         1         6         6         2         4      0.00002346
         1         1         6         6         3         1      0.00000000
         1         1         6         6         3         2      0.00000000
         1         1         6         6         3         3     -0.00391334
         1         1         6         6         3         4     -0.00000000
         1         1         6         6         4         1     -0.00000534
         1         1         6         6         4         2      0.00002346
         1         1         6         6         4         3     -0.00000000
         1         1         6         6         4         4     -0.00396307
         1         1         7         7         1         1     -0.00782371
         1         1         7         7         1         2      0.00000530
         1         1         7         7         1         3      0.00000000
         1         1         7         7         1         4     -0.00000534
         1         1         7         7         2         1      0.00000530
         1         1         7         7         2         2     -0.00398035
         1         1         7         7         2         3      0.00000000
         1         1         7         7         2         4      0.00002346
         1         1         7         7         3         1      0.00000000
         1         1         7         7         3         2      0.00000000
         1         1         7         7         3         3     -0.00391334
         1         1         7         7         3         4     -0.00000000
         1         1         7         7         4         1     -0.00000534
         1         1         7         7         4         2      0.00002346
         1         1         7         7         4         3     -0.00000000
         1         1         7         7         4         4     -0.00396307
         1         1         8         8         1         1     -0.00756495
         1         1         8         8         1         2      0.00000000
         1         1         8         8         1         3     -0.00000000
         1         1         8         8         1         4     -0.00000229
         1         1         8         8         2         1      0.00000000
         1         1         8         8         2         2     -0.00389884
         1         1         8         8         2         3      0.00000000
         1         1         8         8         2         4     -0.00000000
         1         1         8         8         3         1     -0.00000000
         1         1         8         8         3         2      0.00000000
         1         1         8         8         3         3     -0.00389884
         1         1         8         8         3         4      0.00000000
         1         1         8         8         4         1     -0.00000229
         1         1         8         8         4         2     -0.00000000
         1         1         8         8         4         3      0.00000000
         1         1         8         8         4         4     -0.00392416
         2         2         1         1         1         1     -0.00847127
         2         2         1         1         1         2     -0.00000001
         2         2         1         1         1         3     -0.00000000
         2         2         1         1         1         4      0.00000519
         2         2         1         1         2         1     -0.00000001
         2         2         1         1         2         2     -0.00405876
         2         2         1         1         2         3     -0.00000130
         2         2         1         1         2         4     -0.00003393
         2         2         1         1         3         1     -0.00000000
         2         2         1         1         3         2     -0.00000130
         2         2         1         1         3         3     -0.00405246
         2         2         1         1         3         4     -0.00000672
         2         2         1         1         4         1      0.00000519
         2         2         1         1         4         2     -0.00003393
         2         2         1         1         4         3     -0.00000672
         2         2         1         1         4         4     -0.00402600
         2         2         2         2         1         1     -0.00818590
         2         2         2         2         1         2     -0.00000000
         2         2         2         2         1         3      0.00000507
         2         2         2         2         1         4     -0.00001106
         2         2         2         2         2         1     -0.00000000
         2         2         2         2         2         2     -0.00412168
         2         2         2         2         2         3      0.00000000
         2         2         2         2         2         4     -0.00000000
         2         2         2         2         3         1      0.00000507
         2         2         2         2         3         2      0.00000000
         2         2         2         2         3         3     -0.00417623
         2         2         2         2         3         4     -0.00000162
         2         2         2         2         4         1     -0.00001106
         2         2         2         2         4         2     -0.00000000
         2         2         2         2         4         3     -0.00000162
         2         2         2         2         4         4     -0.00411840
         2         2         3         3         1         1     -0.00818529
         2         2         3         3         1         2     -0.00000436
         2         2         3         3         1         3      0.00000218
         2         2         3         3         1         4      0.00000093
         2         2         3         3         2         1     -0.00000436
         2         2         3         3         2         2     -0.00399464
         2         2         3         3         2         3      0.00001734
         2         2         3         3         2         4     -0.00003355
         2         2         3         3         3         1      0.00000218
         2         2         3         3         3         2      0.00001734
         2         2         3         3         3         3     -0.00397734
         2         2         3         3         3         4      0.00000602
         2         2         3         3         4         1      0.00000093
         2         2         3         3         4         2     -0.00003355
         2         2         3         3         4         3      0.00000602
         2         2         3         3         4         4     -0.00395494
         2         2         4         4         1         1     -0.00791230
         2         2         4         4         1         2      0.00000529
         2         2         4         4         1         3      0.00000012
         2         2         4         4         1         4     -0.00000652
         2         2         4         4         2         1      0.00000529
         2         2         4         4         2         2     -0.00405112
         2         2         4         4         2         3      0.00002511
         2         2         4         4         2         4      0.00001918
         2         2         4         4         3         1      0.00000012
         2         2         4         4         3         2      0.00002511
         2         2         4         4         3         3     -0.00405505
         2         2         4         4         3         4      0.00001205
         2         2         4         4         4         1     -0.00000652
         2         2         4         4         4         2      0.00001918
         2         2         4         4         4         3      0.00001205
         2         2         4         4         4         4     -0.00402754
         2         2         5         5         1         1     -0.00818529
         2         2         5         5         1         2     -0.00000436
         2         2         5         5         1         3      0.00000218
         2         2         5         5         1         4      0.00000093
         2         2         5         5         2         1     -0.00000436
         2         2         5         5         2         2     -0.00399464
         2         2         5         5         2         3      0.00001734
         2         2         5         5         2         4     -0.00003355
         2         2         5         5         3         1      0.00000218
         2         2         5         5         3         2      0.00001734
         2         2         5         5         3         3     -0.00397734
         2         2         5         5         3         4      0.00000602
         2         2         5         5         4         1      0.00000093
         2         2         5         5         4         2     -0.00003355
         2         2         5         5         4         3      0.00000602
         2         2         5         5         4         4     -0.00395494
         2         2         6         6         1         1     -0.00791230
         2         2         6         6         1         2      0.00000529
         2         2         6         6         1         3      0.00000012
         2         2         6         6         1         4     -0.00000652
         2         2         6         6         2         1      0.00000529
         2         2         6         6         2         2     -0.00405112
         2         2         6         6         2         3      0.00002511
         2         2         6         6         2         4      0.00001918
         2         2         6         6         3         1      0.00000012
         2         2         6         6         3         2      0.00002511
         2         2         6         6         3         3     -0.00405505
         2         2         6         6         3         4      0.00001205
         2         2         6         6         4         1     -0.00000652
         2         2         6         6         4         2      0.00001918
         2         2         6         6         4         3      0.00001205
         2         2         6         6         4         4     -0.00402754
         2         2         7         7         1         1     -0.00791148
         2         2         7         7         1         2     -0.00000287
         2         2         7         7         1         3     -0.00000000
         2         2         7         7         1         4      0.00000264
         2         2         7         7         2         1     -0.00000287
         2         2         7         7         2         2     -0.00393802
         2         2         7         7         2         3      0.00000000
         2         2         7         7         2         4     -0.00001321
         2         2         7         7         3         1     -0.00000000
         2         2         7         7         3         2      0.00000000
         2         2         7         7         3         3     -0.00392282
         2         2         7         7         3         4      0.00000000
         2         2         7         7         4         1      0.00000264
         2         2         7         7         4         2     -0.00001321
         2         2         7         7         4         3      0.00000000
         2         2         7         7         4         4     -0.00393021
         2         2         8         8         1         1     -0.00764982
         2         2         8         8         1         2     -0.00000003
         2         2         8         8         1         3      0.00000000
         2         2         8         8         1         4     -0.00000283
         2         2         8         8         2         1     -0.00000003
         2         2         8         8         2         2     -0.00401205
         2         2         8         8         2         3      0.00000164
         2         2         8         8         2         4     -0.00001464
         2         2         8         8         3         1      0.00000000
         2         2         8         8         3         2      0.00000164
         2         2         8         8         3         3     -0.00393737
         2         2         8         8         3         4      0.00000032
         2         2         8         8         4         1     -0.00000283
         2         2         8         8         4         2     -0.00001464
         2         2         8         8         4         3      0.00000032
         2         2         8         8         4         4     -0.00397559
         3         3         1         1         1         1     -0.00847127
         3         3         1         1         1         2      0.00000000
         3         3         1         1         1         3      0.00000001
         3         3         1         1         1         4      0.00000519
         3         3         1         1         2         1      0.00000000
         3         3         1         1         2         2     -0.00405291
         3         3         1         1         2         3     -0.00000208
         3         3         1         1         2         4      0.00001114
         3         3         1         1         3         1      0.00000001
         3         3         1         1         3         2     -0.00000208
         3         3         1         1         3         3     -0.00405831
         3         3         1         1         3         4      0.00003275
         3         3         1         1         4         1      0.00000519
         3         3         1         1         4         2      0.00001114
         3         3         1         1         4         3      0.00003275
         3         3         1         1         4         4     -0.00402600
         3         3         2         2         1         1     -0.00818529
         3         3         2         2         1         2     -0.00000436
         3         3         2         2         1         3      0.00000218
         3         3         2         2         1         4      0.00000093
         3         3         2         2         2         1     -0.00000436
         3         3         2         2         2         2     -0.00399464
         3         3         2         2         2         3      0.00001734
         3         3         2         2         2         4     -0.00003355
         3         3         2         2         3         1      0.00000218
         3         3         2         2         3         2      0.00001734
         3         3         2         2         3         3     -0.00397734
         3         3         2         2         3         4      0.00000602
         3         3         2         2         4         1      0.00000093
         3         3         2         2         4         2     -0.00003355
         3         3         2         2         4         3      0.00000602
         3         3         2         2         4         4     -0.00395494
         3         3         3         3         1         1     -0.00818590
         3         3         3         3         1         2      0.00000000
         3         3         3         3         1         3      0.00000507
         3         3         3         3         1         4     -0.00001106
         3         3         3         3         2         1      0.00000000
         3         3         3         3         2         2     -0.00412168
         3         3         3         3         2         3     -0.00000000
         3         3         3         3         2         4      0.00000000
         3         3         3         3         3         1      0.00000507
         3         3         3         3         3         2     -0.00000000
         3         3         3         3         3         3     -0.00417623
         3         3         3         3         3         4     -0.00000162
         3         3         3         3         4         1     -0.00001106
         3         3         3         3         4         2      0.00000000
         3         3         3         3         4         3     -0.00000162
         3         3         3         3         4         4     -0.00411840
         3         3         4         4         1         1     -0.00791230
         3         3         4         4         1         2      0.00000529
         3         3         4         4         1         3     -0.00000012
         3         3         4         4         1         4     -0.00000652
         3         3         4         4         2         1      0.00000529
         3         3         4         4         2         2     -0.00405112
         3         3         4         4         2         3     -0.00002511
         3         3         4         4         2         4      0.00001918
         3         3         4         4         3         1     -0.00000012
         3         3         4         4         3         2     -0.00002511
         3         3         4         4         3         3     -0.00405505
         3         3         4         4         3         4     -0.00001205
         3         3         4         4         4         1     -0.00000652
         3         3         4         4         4         2      0.00001918
         3         3         4         4         4         3     -0.00001205
         3         3         4         4         4         4     -0.00402754
         3         3         5         5         1         1     -0.00818529
         3         3         5         5         1         2      0.00000436
         3         3         5         5         1         3      0.00000218
         3         3         5         5         1         4      0.00000093
         3         3         5         5         2         1      0.00000436
         3         3         5         5         2         2     -0.00399464
         3         3         5         5         2         3     -0.00001734
         3         3         5         5         2         4      0.00003355
         3         3         5         5         3         1      0.00000218
         3         3         5         5         3         2     -0.00001734
         3         3         5         5         3         3     -0.00397734
         3         3         5         5         3         4      0.00000602
         3         3         5         5         4         1      0.00000093
         3         3         5         5         4         2      0.00003355
         3         3         5         5         4         3      0.00000602
         3         3         5         5         4         4     -0.00395494
         3         3         6         6         1         1     -0.00791148
         3         3         6         6         1         2     -0.00000287
         3         3         6         6         1         3     -0.00000000
         3         3         6         6         1         4      0.00000264
         3         3         6         6         2         1     -0.00000287
         3         3         6         6         2         2     -0.00393802
         3         3         6         6         2         3      0.00000000
         3         3         6         6         2         4     -0.00001321
         3         3         6         6         3         1     -0.00000000
         3         3         6         6         3         2      0.00000000
         3         3         6         6         3         3     -0.00392282
         3         3         6         6         3         4      0.00000000
         3         3         6         6         4         1      0.00000264
         3         3         6         6         4         2     -0.00001321
         3         3         6         6         4         3      0.00000000
         3         3         6         6         4         4     -0.00393021
         3         3         7         7         1         1     -0.00791230
         3         3         7         7         1         2      0.00000529
         3         3         7         7         1         3      0.00000012
         3         3         7         7         1         4     -0.00000652
         3         3         7         7         2         1      0.00000529
         3         3         7         7         2         2     -0.00405112
         3         3         7         7         2         3      0.00002511
         3         3         7         7         2         4      0.00001918
         3         3         7         7         3         1      0.00000012
         3         3         7         7         3         2      0.00002511
         3         3         7         7         3         3     -0.00405505
         3         3         7         7         3         4      0.00001205
         3         3         7         7         4         1     -0.00000652
         3         3         7         7         4         2      0.00001918
         3         3         7         7         4         3      0.00001205
         3         3         7         7         4         4     -0.00402754
         3         3         8         8         1         1     -0.00764982
         3         3         8         8         1         2      0.00000002
         3         3         8         8         1         3      0.00000003
         3         3         8         8         1         4     -0.00000283
         3         3         8         8         2         1      0.00000002
         3         3         8         8         2         2     -0.00395746
         3         3         8         8         2         3     -0.00003316
         3         3         8         8         2         4      0.00000760
         3         3         8         8         3         1      0.00000003
         3         3         8         8         3         2     -0.00003316
         3         3         8         8         3         3     -0.00399196
         3         3         8         8         3         4      0.00001251
         3         3         8         8         4         1     -0.00000283
         3         3         8         8         4         2      0.00000760
         3         3         8         8         4         3      0.00001251
         3         3         8         8         4         4     -0.00397559
         4         4         1         1         1         1     -0.00856609
         4         4         1         1         1         2     -0.00000067
         4         4         1         1         1         3      0.00000076
         4         4         1         1         1         4      0.00000356
         4         4         1         1         2         1     -0.00000067
         4         4         1         1         2         2     -0.00399244
         4         4         1         1         2         3      0.00004036
         4         4         1         1         2         4     -0.00001132
         4         4         1         1         3         1      0.00000076
         4         4         1         1         3         2      0.00004036
         4         4         1         1         3         3     -0.00400319
         4         4         1         1         3         4      0.00001292
         4         4         1         1         4         1      0.00000356
         4         4         1         1         4         2     -0.00001132
         4         4         1         1         4         3      0.00001292
         4         4         1         1         4         4     -0.00399914
         4         4         2         2         1         1     -0.00827644
         4         4         2         2         1         2      0.00000033
         4         4         2         2         1         3     -0.00000020
         4         4         2         2         1         4     -0.00000833
         4         4         2         2         2         1      0.00000033
         4         4         2         2         2         2     -0.00408100
         4         4         2         2         2         3      0.00002980
         4         4         2         2         2         4      0.00000484
         4         4         2         2         3         1     -0.00000020
         4         4         2         2         3         2      0.00002980
         4         4         2         2         3         3     -0.00404651
         4         4         2         2         3         4     -0.00001362
         4         4         2         2         4         1     -0.00000833
         4         4         2         2         4         2      0.00000484
         4         4         2         2         4         3     -0.00001362
         4         4         2         2         4         4     -0.00407631
         4         4         3         3         1         1     -0.00827644
         4         4         3         3         1         2      0.00000033
         4         4         3         3         1         3     -0.00000020
         4         4         3         3         1         4     -0.00000833
         4         4         3         3         2         1      0.00000033
         4         4         3         3         2         2     -0.00408100
         4         4         3         3         2         3      0.00002980
         4         4         3         3         2         4      0.00000484
         4         4         3         3         3         1     -0.00000020
         4         4         3         3         3         2      0.00002980
         4         4         3         3         3         3     -0.00404651
         4         4         3         3         3         4     -0.00001362
         4         4         3         3         4         1     -0.00000833
         4         4         3         3         4         2      0.00000484
         4         4         3         3         4         3     -0.00001362
         4         4         3         3         4         4     -0.00407631
         4         4         4         4         1         1     -0.00799875
         4         4         4         4         1         2      0.00000244
         4         4         4         4         1         3     -0.00000000
         4         4         4         4         1         4     -0.00001176
         4         4         4         4         2         1      0.00000244
         4         4         4         4         2         2     -0.00418340
         4         4         4         4         2         3      0.00000000
         4         4         4         4         2         4     -0.00002476
         4         4         4         4         3         1     -0.00000000
         4         4         4         4         3         2      0.00000000
         4         4         4         4         3         3     -0.00414111
         4         4         4         4         3         4      0.00000000
         4         4         4         4         4         1     -0.00001176
         4         4         4         4         4         2     -0.00002476
         4         4         4         4         4         3      0.00000000
         4         4         4         4         4         4     -0.00415916
         4         4         5         5         1         1     -0.00827568
         4         4         5         5         1         2      0.00000000
         4         4         5         5         1         3      0.00000077
         4         4         5         5         1         4      0.00000358
         4         4         5         5         2         1      0.00000000
         4         4         5         5         2         2     -0.00394251
         4         4         5         5         2         3     -0.00000000
         4         4         5         5         2         4     -0.00000000
         4         4         5         5         3         1      0.00000077
         4         4         5         5         3         2     -0.00000000
         4         4         5         5         3         3     -0.00397041
         4         4         5         5         3         4     -0.00000286
         4         4         5         5         4         1      0.00000358
         4         4         5         5         4         2     -0.00000000
         4         4         5         5         4         3     -0.00000286
         4         4         5         5         4         4     -0.00394510
         4         4         6         6         1         1     -0.00799809
         4         4         6         6         1         2     -0.00000249
         4         4         6         6         1         3      0.00000455
         4         4         6         6         1         4     -0.00000028
         4         4         6         6         2         1     -0.00000249
         4         4         6         6         2         2     -0.00398400
         4         4         6         6         2         3     -0.00000834
         4         4         6         6         2         4     -0.00001286
         4         4         6         6         3         1      0.00000455
         4         4         6         6         3         2     -0.00000834
         4         4         6         6         3         3     -0.00401693
         4         4         6         6         3         4      0.00003420
         4         4         6         6         4         1     -0.00000028
         4         4         6         6         4         2     -0.00001286
         4         4         6         6         4         3      0.00003420
         4         4         6         6         4         4     -0.00399201
         4         4         7         7         1         1     -0.00799809
         4         4         7         7         1         2     -0.00000249
         4         4         7         7         1         3      0.00000455
         4         4         7         7         1         4     -0.00000028
         4         4         7         7         2         1     -0.00000249
         4         4         7         7         2         2     -0.00398400
         4         4         7         7         2         3     -0.00000834
         4         4         7         7         2         4     -0.00001286
         4         4         7         7         3         1      0.00000455
         4         4         7         7         3         2     -0.00000834
         4         4         7         7         3         3     -0.00401693
         4         4         7         7         3         4      0.00003420
         4         4         7         7         4         1     -0.00000028
         4         4         7         7         4         2     -0.00001286
         4         4         7         7         4         3      0.00003420
         4         4         7         7         4         4     -0.00399201
         4         4         8         8         1         1     -0.00773243
         4         4         8         8         1         2     -0.00000049
         4         4         8         8         1         3      0.00000090
         4         4         8         8         1         4     -0.00000471
         4         4         8         8         2         1     -0.00000049
         4         4         8         8         2         2     -0.00407374
         4         4         8         8         2         3      0.00000406
         4         4         8         8         2         4     -0.00001533
         4         4         8         8         3         1      0.00000090
         4         4         8         8         3         2      0.00000406
         4         4         8         8         3         3     -0.00407892
         4         4         8         8         3         4      0.00002795
         4         4         8         8         4         1     -0.00000471
         4         4         8         8         4         2     -0.00001533
         4         4         8         8         4         3      0.00002795
         4         4         8         8         4         4     -0.00404771
         5         5         1         1         1         1     -0.00847127
         5         5         1         1         1         2      0.00000001
         5         5         1         1         1         3     -0.00000001
         5         5         1         1         1         4      0.00000519
         5         5         1         1         2         1      0.00000001
         5         5         1         1         2         2     -0.00405516
         5         5         1         1         2         3      0.00000338
         5         5         1         1         2         4      0.00002279
         5         5         1         1         3         1     -0.00000001
         5         5         1         1         3         2      0.00000338
         5         5         1         1         3         3     -0.00405606
         5         5         1         1         3         4     -0.00002602
         5         5         1         1         4         1      0.00000519
         5         5         1         1         4         2      0.00002279
         5         5         1         1         4         3     -0.00002602
         5         5         1         1         4         4     -0.00402600
         5         5         2         2         1         1     -0.00818529
         5         5         2         2         1         2      0.00000436
         5         5         2         2         1         3      0.00000218
         5         5         2         2         1         4      0.00000093
         5         5         2         2         2         1      0.00000436
         5         5         2         2         2         2     -0.00399464
         5         5         2         2         2         3     -0.00001734
         5         5         2         2         2         4      0.00003355
         5         5         2         2         3         1      0.00000218
         5         5         2         2         3         2     -0.00001734
         5         5         2         2         3         3     -0.00397734
         5         5         2         2         3         4      0.00000602
         5         5         2         2         4         1      0.00000093
         5         5         2         2         4         2      0.00003355
         5         5         2         2         4         3      0.00000602
         5         5         2         2         4         4     -0.00395494
         5         5         3         3         1         1     -0.00818529
         5         5         3         3         1         2      0.00000436
         5         5         3         3         1         3      0.00000218
         5         5         3         3         1         4      0.00000093
         5         5         3         3         2         1      0.00000436
         5         5         3         3         2         2     -0.00399464
         5         5         3         3         2         3     -0.00001734
         5         5         3         3         2         4      0.00003355
         5         5         3         3         3         1      0.00000218
         5         5         3         3         3         2     -0.00001734
         5         5         3         3         3         3     -0.00397734
         5         5         3         3         3         4      0.00000602
         5         5         3         3         4         1      0.00000093
         5         5         3         3         4         2      0.00003355
         5         5         3         3         4         3      0.00000602
         5         5         3         3         4         4     -0.00395494
         5         5         4         4         1         1     -0.00791148
         5         5         4         4         1         2     -0.00000287
         5         5         4         4         1         3     -0.00000000
         5         5         4         4         1         4      0.00000264
         5         5         4         4         2         1     -0.00000287
         5         5         4         4         2         2     -0.00393802
         5         5         4         4         2         3      0.00000000
         5         5         4         4         2         4     -0.00001321
         5         5         4         4         3         1     -0.00000000
         5         5         4         4         3         2      0.00000000
         5         5         4         4         3         3     -0.00392282
         5         5         4         4         3         4      0.00000000
         5         5         4         4         4         1      0.00000264
         5         5         4         4         4         2     -0.00001321
         5         5         4         4         4         3      0.00000000
         5         5         4         4         4         4     -0.00393021
         5         5         5         5         1         1     -0.00818590
         5         5         5         5         1         2      0.00000000
         5         5         5         5         1         3      0.00000507
         5         5         5         5         1         4     -0.00001106
         5         5         5         5         2         1      0.00000000
         5         5         5         5         2         2     -0.00412168
         5         5         5         5         2         3     -0.00000000
         5         5         5         5         2         4     -0.00000000
         5         5         5         5         3         1      0.00000507
         5         5         5         5         3         2     -0.00000000
         5         5         5         5         3         3     -0.00417623
         5         5         5         5         3         4     -0.00000162
         5         5         5         5         4         1     -0.00001106
         5         5         5         5         4         2     -0.00000000
         5         5         5         5         4         3     -0.00000162
         5         5         5         5         4         4     -0.00411840
         5         5         6         6         1         1     -0.00791230
         5         5         6         6         1         2      0.00000529
         5         5         6         6         1         3     -0.00000012
         5         5         6         6         1         4     -0.00000652
         5         5         6         6         2         1      0.00000529
         5         5         6         6         2         2     -0.00405112
         5         5         6         6         2         3     -0.00002511
         5         5         6         6         2         4      0.00001918
         5         5         6         6         3         1     -0.00000012
         5         5         6         6         3         2     -0.00002511
         5         5         6         6         3         3     -0.00405505
         5         5         6         6         3         4     -0.00001205
         5         5         6         6         4         1     -0.00000652
         5         5         6         6         4         2      0.00001918
         5         5         6         6         4         3     -0.00001205
         5         5         6         6         4         4     -0.00402754
         5         5         7         7         1         1     -0.00791230
         5         5         7         7         1         2      0.00000529
         5         5         7         7         1         3     -0.00000012
         5         5         7         7         1         4     -0.00000652
         5         5         7         7         2         1      0.00000529
         5         5         7         7         2         2     -0.00405112
         5         5         7         7         2         3     -0.00002511
         5         5         7         7         2         4      0.00001918
         5         5         7         7         3         1     -0.00000012
         5         5         7         7         3         2     -0.00002511
         5         5         7         7         3         3     -0.00405505
         5         5         7         7         3         4     -0.00001205
         5         5         7         7         4         1     -0.00000652
         5         5         7         7         4         2      0.00001918
         5         5         7         7         4         3     -0.00001205
         5         5         7         7         4         4     -0.00402754
         5         5         8         8         1         1     -0.00764982
         5         5         8         8         1         2      0.00000001
         5         5         8         8         1         3     -0.00000003
         5         5         8         8         1         4     -0.00000283
         5         5         8         8         2         1      0.00000001
         5         5         8         8         2         2     -0.00395462
         5         5         8         8         2         3      0.00003152
         5         5         8         8         2         4      0.00000704
         5         5         8         8         3         1     -0.00000003
         5         5         8         8         3         2      0.00003152
         5         5         8         8         3         3     -0.00399480
         5         5         8         8         3         4     -0.00001284
         5         5         8         8         4         1     -0.00000283
         5         5         8         8         4         2      0.00000704
         5         5         8         8         4         3     -0.00001284
         5         5         8         8         4         4     -0.00397559
         6         6         1         1         1         1     -0.00856609
         6         6         1         1         1         2     -0.00000033
         6         6         1         1         1         3     -0.00000096
         6         6         1         1         1         4      0.00000356
         6         6         1         1         2         1     -0.00000033
         6         6         1         1         2         2     -0.00396555
         6         6         1         1         2         3     -0.00002483
         6         6         1         1         2         4     -0.00000553
         6         6         1         1         3         1     -0.00000096
         6         6         1         1         3         2     -0.00002483
         6         6         1         1         3         3     -0.00403008
         6         6         1         1         3         4     -0.00001626
         6         6         1         1         4         1      0.00000356
         6         6         1         1         4         2     -0.00000553
         6         6         1         1         4         3     -0.00001626
         6         6         1         1         4         4     -0.00399914
         6         6         2         2         1         1     -0.00827644
         6         6         2         2         1         2     -0.00000033
         6         6         2         2         1         3     -0.00000020
         6         6         2         2         1         4     -0.00000833
         6         6         2         2         2         1     -0.00000033
         6         6         2         2         2         2     -0.00408100
         6         6         2         2         2         3     -0.00002980
         6         6         2         2         2         4     -0.00000484
         6         6         2         2         3         1     -0.00000020
         6         6         2         2         3         2     -0.00002980
         6         6         2         2         3         3     -0.00404651
         6         6         2         2         3         4     -0.00001362
         6         6         2         2         4         1     -0.00000833
         6         6         2         2         4         2     -0.00000484
         6         6         2         2         4         3     -0.00001362
         6         6         2         2         4         4     -0.00407631
         6         6         3         3         1         1     -0.00827568
         6         6         3         3         1         2     -0.00000000
         6         6         3         3         1         3      0.00000077
         6         6         3         3         1         4      0.00000358
         6         6         3         3         2         1     -0.00000000
         6         6         3         3         2         2     -0.00394251
         6         6         3         3         2         3     -0.00000000
         6         6         3         3         2         4      0.00000000
         6         6         3         3         3         1      0.00000077
         6         6         3         3         3         2     -0.00000000
         6         6         3         3         3         3     -0.00397041
         6         6         3         3         3         4     -0.00000286
         6         6         3         3         4         1      0.00000358
         6         6         3         3         4         2      0.00000000
         6         6         3         3         4         3     -0.00000286
         6         6         3         3         4         4     -0.00394510
         6         6         4         4         1         1     -0.00799809
         6         6         4         4         1         2     -0.00000249
         6         6         4         4         1         3      0.00000455
         6         6         4         4         1         4     -0.00000028
         6         6         4         4         2         1     -0.00000249
         6         6         4         4         2         2     -0.00398400
         6         6         4         4         2         3     -0.00000834
         6         6         4         4         2         4     -0.00001286
         6         6         4         4         3         1      0.00000455
         6         6         4         4         3         2     -0.00000834
         6         6         4         4         3         3     -0.00401693
         6         6         4         4         3         4      0.00003420
         6         6         4         4         4         1     -0.00000028
         6         6         4         4         4         2     -0.00001286
         6         6         4         4         4         3      0.00003420
         6         6         4         4         4         4     -0.00399201
         6         6         5         5         1         1     -0.00827644
         6         6         5         5         1         2      0.00000033
         6         6         5         5         1         3     -0.00000020
         6         6         5         5         1         4     -0.00000833
         6         6         5         5         2         1      0.00000033
         6         6         5         5         2         2     -0.00408100
         6         6         5         5         2         3      0.00002980
         6         6         5         5         2         4      0.00000484
         6         6         5         5         3         1     -0.00000020
         6         6         5         5         3         2      0.00002980
         6         6         5         5         3         3     -0.00404651
         6         6         5         5         3         4     -0.00001362
         6         6         5         5         4         1     -0.00000833
         6         6         5         5         4         2      0.00000484
         6         6         5         5         4         3     -0.00001362
         6         6         5         5         4         4     -0.00407631
         6         6         6         6         1         1     -0.00799875
         6         6         6         6         1         2      0.00000244
         6         6         6         6         1         3     -0.00000000
         6         6         6         6         1         4     -0.00001176
         6         6         6         6         2         1      0.00000244
         6         6         6         6         2         2     -0.00418340
         6         6         6         6         2         3      0.00000000
         6         6         6         6         2         4     -0.00002476
         6         6         6         6         3         1     -0.00000000
         6         6         6         6         3         2      0.00000000
         6         6         6         6         3         3     -0.00414111
         6         6         6         6         3         4      0.00000000
         6         6         6         6         4         1     -0.00001176
         6         6         6         6         4         2     -0.00002476
         6         6         6         6         4         3      0.00000000
         6         6         6         6         4         4     -0.00415916
         6         6         7         7         1         1     -0.00799809
         6         6         7         7         1         2     -0.00000249
         6         6         7         7         1         3     -0.00000455
         6         6         7         7         1         4     -0.00000028
         6         6         7         7         2         1     -0.00000249
         6         6         7         7         2         2     -0.00398400
[...]
         7         2         2         7         4         2     -0.00241775
         7         2         2         7         4         3     -0.00000000
         7         2         2         7         4         4      0.00310141
         7         2         3         6         1         1     -0.00808947
         7         2         3         6         1         2     -0.00002814
         7         2         3         6         1         3     -0.00000487
         7         2         3         6         1         4      0.00008129
         7         2         3         6         2         1     -0.00000486
         7         2         3         6         2         2     -0.00002607
         7         2         3         6         2         3      0.00406805
         7         2         3         6         2         4     -0.00001345
         7         2         3         6         3         1     -0.00002747
         7         2         3         6         3         2     -0.00319229
         7         2         3         6         3         3      0.00002819
         7         2         3         6         3         4     -0.00246802
         7         2         3         6         4         1      0.00008031
         7         2         3         6         4         2     -0.00251035
         7         2         3         6         4         3      0.00000538
         7         2         3         6         4         4      0.00319779
         7         2         4         5         1         1     -0.00809086
         7         2         4         5         1         2      0.00000942
         7         2         4         5         1         3     -0.00003338
         7         2         4         5         1         4      0.00006478
         7         2         4         5         2         1     -0.00001382
         7         2         4         5         2         2     -0.00000804
         7         2         4         5         2         3     -0.00314262
         7         2         4         5         2         4     -0.00243169
         7         2         4         5         3         1      0.00000944
         7         2         4         5         3         2      0.00400582
         7         2         4         5         3         3     -0.00001601
         7         2         4         5         3         4      0.00003233
         7         2         4         5         4         1      0.00007294
         7         2         4         5         4         2      0.00003599
         7         2         4         5         4         3     -0.00245587
         7         2         4         5         4         4      0.00313239
         7         2         5         4         1         1     -0.00808947
         7         2         5         4         1         2     -0.00002814
         7         2         5         4         1         3     -0.00000487
         7         2         5         4         1         4      0.00008129
         7         2         5         4         2         1     -0.00000486
         7         2         5         4         2         2     -0.00002607
         7         2         5         4         2         3      0.00406805
         7         2         5         4         2         4     -0.00001345
         7         2         5         4         3         1     -0.00002747
         7         2         5         4         3         2     -0.00319229
         7         2         5         4         3         3      0.00002819
         7         2         5         4         3         4     -0.00246802
         7         2         5         4         4         1      0.00008031
         7         2         5         4         4         2     -0.00251035
         7         2         5         4         4         3      0.00000538
         7         2         5         4         4         4      0.00319779
         7         2         6         3         1         1     -0.00809086
         7         2         6         3         1         2      0.00000942
         7         2         6         3         1         3     -0.00003338
         7         2         6         3         1         4      0.00006478
         7         2         6         3         2         1     -0.00001382
         7         2         6         3         2         2     -0.00000804
         7         2         6         3         2         3     -0.00314262
         7         2         6         3         2         4     -0.00243169
         7         2         6         3         3         1      0.00000944
         7         2         6         3         3         2      0.00400582
         7         2         6         3         3         3     -0.00001601
         7         2         6         3         3         4      0.00003233
         7         2         6         3         4         1      0.00007294
         7         2         6         3         4         2      0.00003599
         7         2         6         3         4         3     -0.00245587
         7         2         6         3         4         4      0.00313239
         7         2         7         2         1         1     -0.00808972
         7         2         7         2         1         2      0.00000000
         7         2         7         2         1         3     -0.00003705
         7         2         7         2         1         4      0.00008532
         7         2         7         2         2         1     -0.00002381
         7         2         7         2         2         2      0.00000000
         7         2         7         2         2         3     -0.00330557
         7         2         7         2         2         4     -0.00254170
         7         2         7         2         3         1      0.00000000
         7         2         7         2         3         2      0.00413145
         7         2         7         2         3         3      0.00000000
         7         2         7         2         3         4      0.00000000
         7         2         7         2         4         1      0.00009141
         7         2         7         2         4         2     -0.00000000
         7         2         7         2         4         3     -0.00257023
         7         2         7         2         4         4      0.00325659
         7         2         8         1         1         1     -0.00808896
         7         2         8         1         1         2     -0.00000621
         7         2         8         1         1         3     -0.00000123
         7         2         8         1         1         4     -0.00008117
         7         2         8         1         2         1     -0.00000618
         7         2         8         1         2         2      0.00397419
         7         2         8         1         2         3      0.00087839
         7         2         8         1         2         4      0.00003285
         7         2         8         1         3         1      0.00000014
         7         2         8         1         3         2     -0.00087697
         7         2         8         1         3         3      0.00396611
         7         2         8         1         3         4     -0.00000072
         7         2         8         1         4         1      0.00008517
         7         2         8         1         4         2     -0.00003296
         7         2         8         1         4         3     -0.00000653
         7         2         8         1         4         4     -0.00403652
         8         1         1         8         1         1     -0.00808289
         8         1         1         8         1         2     -0.00000000
         8         1         1         8         1         3      0.00000000
         8         1         1         8         1         4      0.00007458
         8         1         1         8         2         1     -0.00000000
         8         1         1         8         2         2      0.00383917
         8         1         1         8         2         3     -0.00084872
         8         1         1         8         2         4     -0.00000000
         8         1         1         8         3         1      0.00000000
         8         1         1         8         3         2      0.00084872
         8         1         1         8         3         3      0.00383917
         8         1         1         8         3         4      0.00000000
         8         1         1         8         4         1     -0.00007109
         8         1         1         8         4         2     -0.00000000
         8         1         1         8         4         3      0.00000000
         8         1         1         8         4         4     -0.00395797
         8         1         2         7         1         1     -0.00808538
         8         1         2         7         1         2     -0.00002961
         8         1         2         7         1         3      0.00000000
         8         1         2         7         1         4      0.00007523
         8         1         2         7         2         1      0.00000000
         8         1         2         7         2         2     -0.00000000
         8         1         2         7         2         3      0.00394642
         8         1         2         7         2         4     -0.00000000
         8         1         2         7         3         1     -0.00002271
         8         1         2         7         3         2     -0.00315177
         8         1         2         7         3         3      0.00000000
         8         1         2         7         3         4     -0.00243829
         8         1         2         7         4         1      0.00007678
         8         1         2         7         4         2     -0.00248495
         8         1         2         7         4         3      0.00000000
         8         1         2         7         4         4      0.00316743
         8         1         3         6         1         1     -0.00808538
         8         1         3         6         1         2     -0.00002961
         8         1         3         6         1         3      0.00000000
         8         1         3         6         1         4      0.00007523
         8         1         3         6         2         1      0.00000000
         8         1         3         6         2         2     -0.00000000
         8         1         3         6         2         3      0.00394642
         8         1         3         6         2         4      0.00000000
         8         1         3         6         3         1     -0.00002271
         8         1         3         6         3         2     -0.00315177
         8         1         3         6         3         3      0.00000000
         8         1         3         6         3         4     -0.00243829
         8         1         3         6         4         1      0.00007678
         8         1         3         6         4         2     -0.00248495
         8         1         3         6         4         3      0.00000000
         8         1         3         6         4         4      0.00316743
         8         1         4         5         1         1     -0.00808647
         8         1         4         5         1         2     -0.00000000
         8         1         4         5         1         3     -0.00004237
         8         1         4         5         1         4      0.00007679
         8         1         4         5         2         1     -0.00001440
         8         1         4         5         2         2     -0.00000000
         8         1         4         5         2         3     -0.00316583
         8         1         4         5         2         4     -0.00247058
         8         1         4         5         3         1     -0.00000000
         8         1         4         5         3         2      0.00406105
         8         1         4         5         3         3     -0.00000000
         8         1         4         5         3         4      0.00000000
         8         1         4         5         4         1      0.00008849
         8         1         4         5         4         2     -0.00000000
         8         1         4         5         4         3     -0.00251078
         8         1         4         5         4         4      0.00322750
         8         1         5         4         1         1     -0.00808538
         8         1         5         4         1         2     -0.00002961
         8         1         5         4         1         3      0.00000000
         8         1         5         4         1         4      0.00007523
         8         1         5         4         2         1     -0.00000000
         8         1         5         4         2         2     -0.00000000
         8         1         5         4         2         3      0.00394642
         8         1         5         4         2         4     -0.00000000
         8         1         5         4         3         1     -0.00002271
         8         1         5         4         3         2     -0.00315177
         8         1         5         4         3         3      0.00000000
         8         1         5         4         3         4     -0.00243829
         8         1         5         4         4         1      0.00007678
         8         1         5         4         4         2     -0.00248495
         8         1         5         4         4         3      0.00000000
         8         1         5         4         4         4      0.00316743
         8         1         6         3         1         1     -0.00808647
         8         1         6         3         1         2     -0.00000000
         8         1         6         3         1         3     -0.00004237
         8         1         6         3         1         4      0.00007679
         8         1         6         3         2         1     -0.00001440
         8         1         6         3         2         2     -0.00000000
         8         1         6         3         2         3     -0.00316583
         8         1         6         3         2         4     -0.00247058
         8         1         6         3         3         1      0.00000000
         8         1         6         3         3         2      0.00406105
         8         1         6         3         3         3      0.00000000
         8         1         6         3         3         4      0.00000000
         8         1         6         3         4         1      0.00008849
         8         1         6         3         4         2     -0.00000000
         8         1         6         3         4         3     -0.00251078
         8         1         6         3         4         4      0.00322750
         8         1         7         2         1         1     -0.00808647
         8         1         7         2         1         2     -0.00000000
         8         1         7         2         1         3     -0.00004237
         8         1         7         2         1         4      0.00007679
         8         1         7         2         2         1     -0.00001440
         8         1         7         2         2         2     -0.00000000
         8         1         7         2         2         3     -0.00316583
         8         1         7         2         2         4     -0.00247058
         8         1         7         2         3         1      0.00000000
         8         1         7         2         3         2      0.00406105
         8         1         7         2         3         3      0.00000000
         8         1         7         2         3         4      0.00000000
         8         1         7         2         4         1      0.00008849
         8         1         7         2         4         2     -0.00000000
         8         1         7         2         4         3     -0.00251078
         8         1         7         2         4         4      0.00322750
         8         1         8         1         1         1     -0.00808616
         8         1         8         1         1         2     -0.00000000
         8         1         8         1         1         3     -0.00000000
         8         1         8         1         1         4     -0.00009351
         8         1         8         1         2         1     -0.00000000
         8         1         8         1         2         2      0.00403320
         8         1         8         1         2         3      0.00089162
         8         1         8         1         2         4     -0.00000000
         8         1         8         1         3         1      0.00000000
         8         1         8         1         3         2     -0.00089162
         8         1         8         1         3         3      0.00403320
         8         1         8         1         3         4      0.00000000
         8         1         8         1         4         1      0.00009786
         8         1         8         1         4         2      0.00000000
         8         1         8         1         4         3      0.00000000
         8         1         8         1         4         4     -0.00418595


 RESULTS
 =======

  Reference energy                    -22.841273440359
  CCSD singlet pair energy             -0.259494836420
  CCSD triplet pair energy             -0.000066637432
  CCSD correlation energy              -0.259561473852

 !CCSD total energy                   -23.100834914211

 Timing summary (sec):

 STEP                 CPU(USER)    SYS     CPU(TOT)    WALL
 Transformation          0.01      0.01      0.02      0.02
 CCSD iterations         0.15      0.01      0.16      0.17

 Program statistics:

 Available memory in ccsd:                39998944
 Min. memory needed in ccsd:                 17807
 Max. memory used in ccsd:                   21999
 Max. memory used in cckext:                 49075 (12 integral passes)



 **********************************************************************************************************************************
 DATASETS  * FILE   NREC   LENGTH (MB)   RECORD NAMES
              1      20       30.61       500      700      610      900      950      970     1000      129      960     1100   
                                          VAR     GEOM    BASINP   SYMINP    ZMAT    AOBASIS   BASIS     P2S    ABASIS      S 
                                         1400     1410     1200     1210     1080     1600     1650     1300     1700     1380   
                                           T        V       H0       H01     AOSYM     SMH    MOLCAS    ERIS     OPER     JKOP   

              3       5       14.89       500      610      700     1000     2100   
                                          VAR    BASINP    GEOM     BASIS     RHF  

 PROGRAMS   *        TOTAL      CCSD       INT   RESTART
 CPU TIMES  *         0.62      0.23      0.27      0.02
 REAL TIME  *         0.82 SEC
 DISK USED  *        50.37 MB
 **********************************************************************************************************************************
 Molecular orbitals read from record     2100.3  Type=RHF/CANONICAL (state 1.1)
 Occupation numbers read from record     2100.3  Type=RHF/RHF (state 1.1)
 Orbital energies read from record       2100.3  Type=RHF/CANONICAL (state 1.1)
 Redundancy group numbers read from rec  2100.3  Type=RHF/RHF (state 1.1)

 CCSD/cc-pVDZ energy=    -23.100834914211

            CCSD
    -23.10083491
 **********************************************************************************************************************************
 Molpro calculation terminated
