
 Primary working directories    : /scr/yuriaoto/job.022846/molpro.BbixuYlXUW
 Secondary working directories  : /scr/yuriaoto/job.022846/molpro.BbixuYlXUW
 Wavefunction directory         : /scr/yuriaoto/job.022846/
 Main file repository           : /scr/yuriaoto/job.022846/molpro.BbixuYlXUW/

 id        : yuriaoto

 Nodes             nprocs
 t-rex.ufabc.int.br    1

 Using customized tuning parameters: mindgm=8; mindgv=16; mindgc=1; mindgr=1; noblas=0; minvec=7
 default implementation of scratch files=df  


 Variables initialized (933), CPU time= 0.01 sec
 ***,
 memory,40,m
 gprint,orbital=15,basis
 gthresh,thrprint=0
 file,3,wfu.dat,new
 
 r = 1.5
 basis = cc-pVDZ
 
 symmetry,x,y,z
 geomtyp=xyz
 geom={
 8
 He8 in a cube
 He1   r    r    r
 He2  -r   -r    r
 He3   r   -r    r
 He4  -r    r    r
 He5   r    r   -r
 He6  -r   -r   -r
 He7   r   -r   -r
 He8  -r    r   -r
 }
 
 {rhf
 occ,1,1,1,1, 1,1,1,1
 wf,16,1,0
 orbital,2100.3
 }
 
 {put,xml,orbitals.xml; nosort; novariables}
 
 Commands  initialized (760), CPU time= 0.01 sec, 617 directives.
 Default parameters read. Elapsed time= 0.09 sec

 Checking input...
 Passed
1


                                         ***  PROGRAM SYSTEM MOLPRO  ***
                                       Copyright, TTI GmbH Stuttgart, 2015
                                    Version 2019.2 linked Abr  7 2019 15:10:35


 **********************************************************************************************************************************
 LABEL *                                                                                 
  64 bit serial version                                                                  DATE: 23-Mar-20          TIME: 15:35:31  
 **********************************************************************************************************************************

 SHA1:             3a8a58c585c929645742fb5a1b7541a4ad1da699
 **********************************************************************************************************************************


 THRESHOLDS:

 ZERO    =  1.00D-12  ONEINT  =  1.00D-12  TWOINT  =  1.00D-11  PREFAC  =  1.00D-14  XXXXXX  =  1.00D-09  EORDER  =  1.00D-04
 ENERGY  =  0.00D+00  ETEST   =  0.00D+00  EDENS   =  0.00D+00  THRDEDEF=  1.00D-06  GRADIENT=  1.00D-02  STEP    =  1.00D-03
 ORBITAL =  1.00D-05  CIVEC   =  1.00D-05  COEFF   =  1.00D-04  PRINTCI =  5.00D-02  PUNCHCI =  9.90D+01  OPTGRAD =  3.00D-04
 OPTENERG=  1.00D-06  OPTSTEP =  3.00D-04  THRGRAD =  1.00D-10  COMPRESS=  1.00D-11  VARMIN  =  1.00D-07  VARMAX  =  1.00D-03
 THRDOUB =  0.00D+00  THRDIV  =  1.00D-05  THRRED  =  1.00D-07  THRPSP  =  1.00D+00  THRDC   =  1.00D-10  THRCS   =  1.00D-10
 THRNRM  =  1.00D-08  THREQ   =  0.00D+00  THRDE   =  1.00D+00  THRREF  =  1.00D-05  SPARFAC =  1.00D+00  THRDLP  =  1.00D-07
 THRDIA  =  1.00D-10  THRDLS  =  1.00D-07  THRGPS  =  0.00D+00  THRKEX  =  0.00D+00  THRDIS  =  2.00D-01  THRVAR  =  1.00D-10
 THRLOC  =  1.00D-06  THRGAP  =  1.00D-06  THRLOCT = -1.00D+00  THRGAPT = -1.00D+00  THRORB  =  1.00D-06  THRMLTP =  0.00D+00
 THRCPQCI=  1.00D-10  KEXTA   =  0.00D+00  THRCOARS=  0.00D+00  SYMTOL  =  1.00D-06  GRADTOL =  1.00D-06  THROVL  =  1.00D-08
 THRORTH =  1.00D-08  GRID    =  1.00D-06  GRIDMAX =  1.00D-03  DTMAX   =  0.00D+00  THROCCDE=  1.00D-01  THROCCDE=  1.00D-01
 THRPRINT=  0.00D+00


 Variable memory set to   40000000 words,  buffer space 



 Permanent file  3  wfu.dat  assigned.  Implementation=df  



 **********************************************************************************************************************************
 DATASETS  * FILE   NREC   LENGTH (MB)   RECORD NAMES
              3       1        0.03       500   
                                          VAR  

 PROGRAMS   *        TOTAL      FILE
 CPU TIMES  *         0.18      0.00
 REAL TIME  *         0.19 SEC
 DISK USED  *         0.09 MB
 **********************************************************************************************************************************
 SETTING R              =         1.50000000                                  
 SETTING BASIS          =    CC-PVDZ
 SETTING GEOMTYP        =    XYZ
 ZSYMEL=X  Y  Z  



 Recomputing integrals since basis changed


 Using spherical harmonics

 Library entry HE     S cc-pVDZ              selected for orbital group  1
 Library entry HE     P cc-pVDZ              selected for orbital group  1


 PROGRAM * SEWARD (Integral evaluation for generally contracted gaussian basis sets)     Author: Roland Lindh, 1990

 Geometry written to block  1 of record 700


 Point group  D2h 



 ATOMIC COORDINATES

 NR  ATOM    CHARGE       X              Y              Z

   1  HE1     2.00    2.834589187    2.834589187    2.834589187
   2  HE2     2.00   -2.834589187   -2.834589187    2.834589187
   3  HE3     2.00    2.834589187   -2.834589187    2.834589187
   4  HE4     2.00   -2.834589187    2.834589187    2.834589187
   5  HE5     2.00    2.834589187    2.834589187   -2.834589187
   6  HE6     2.00   -2.834589187   -2.834589187   -2.834589187
   7  HE7     2.00    2.834589187   -2.834589187   -2.834589187
   8  HE8     2.00   -2.834589187    2.834589187   -2.834589187


 BASIS DATA

   Nr Sym  Nuc  Type         Exponents   Contraction coefficients

    1.1 Ag    1  1s          38.360000     0.023809    0.000000
    2.1 Ag    2  1s           5.770000     0.154891    0.000000
              3  1s           1.240000     0.469987    0.000000
              4  1s           0.297600     0.513027    1.000000
              5  1s    
              6  1s    
              7  1s    
              8  1s    
    3.1 Ag    1  2px          1.275000     1.000000
              2 -2px   
              3  2px   
              4 -2px   
              5  2px   
              6 -2px   
              7  2px   
              8 -2px   
    4.1 Ag    1  2py          1.275000     1.000000
              2 -2py   
              3 -2py   
              4  2py   
              5  2py   
              6 -2py   
              7 -2py   
              8  2py   
    5.1 Ag    1  2pz          1.275000     1.000000
              2  2pz   
              3  2pz   
              4  2pz   
              5 -2pz   
              6 -2pz   
              7 -2pz   
              8 -2pz   
    1.2 B3u   1  1s          38.360000     0.023809    0.000000
    2.2 B3u   2 -1s           5.770000     0.154891    0.000000
              3  1s           1.240000     0.469987    0.000000
              4 -1s           0.297600     0.513027    1.000000
              5  1s    
              6 -1s    
              7  1s    
              8 -1s    
    3.2 B3u   1  2px          1.275000     1.000000
              2  2px   
              3  2px   
              4  2px   
              5  2px   
              6  2px   
              7  2px   
              8  2px   
    4.2 B3u   1  2py          1.275000     1.000000
              2  2py   
              3 -2py   
              4 -2py   
              5  2py   
              6  2py   
              7 -2py   
              8 -2py   
    5.2 B3u   1  2pz          1.275000     1.000000
              2 -2pz   
              3  2pz   
              4 -2pz   
              5 -2pz   
              6  2pz   
              7 -2pz   
              8  2pz   
    1.3 B2u   1  1s          38.360000     0.023809    0.000000
    2.3 B2u   2 -1s           5.770000     0.154891    0.000000
              3 -1s           1.240000     0.469987    0.000000
              4  1s           0.297600     0.513027    1.000000
              5  1s    
              6 -1s    
              7 -1s    
              8  1s    
    3.3 B2u   1  2py          1.275000     1.000000
              2  2py   
              3  2py   
              4  2py   
              5  2py   
              6  2py   
              7  2py   
              8  2py   
    4.3 B2u   1  2px          1.275000     1.000000
              2  2px   
              3 -2px   
              4 -2px   
              5  2px   
              6  2px   
              7 -2px   
              8 -2px   
    5.3 B2u   1  2pz          1.275000     1.000000
              2 -2pz   
              3 -2pz   
              4  2pz   
              5 -2pz   
              6  2pz   
              7  2pz   
              8 -2pz   
    1.4 B1g   1  1s          38.360000     0.023809    0.000000
    2.4 B1g   2  1s           5.770000     0.154891    0.000000
              3 -1s           1.240000     0.469987    0.000000
              4 -1s           0.297600     0.513027    1.000000
              5  1s    
              6  1s    
              7 -1s    
              8 -1s    
    3.4 B1g   1  2py          1.275000     1.000000
              2 -2py   
              3  2py   
              4 -2py   
              5  2py   
              6 -2py   
              7  2py   
              8 -2py   
    4.4 B1g   1  2px          1.275000     1.000000
              2 -2px   
              3 -2px   
              4  2px   
              5  2px   
              6 -2px   
              7 -2px   
              8  2px   
    5.4 B1g   1  2pz          1.275000     1.000000
              2  2pz   
              3 -2pz   
              4 -2pz   
              5 -2pz   
              6 -2pz   
              7  2pz   
              8  2pz   
    1.5 B1u   1  1s          38.360000     0.023809    0.000000
    2.5 B1u   2  1s           5.770000     0.154891    0.000000
              3  1s           1.240000     0.469987    0.000000
              4  1s           0.297600     0.513027    1.000000
              5 -1s    
              6 -1s    
              7 -1s    
              8 -1s    
    3.5 B1u   1  2pz          1.275000     1.000000
              2  2pz   
              3  2pz   
              4  2pz   
              5  2pz   
              6  2pz   
              7  2pz   
              8  2pz   
    4.5 B1u   1  2px          1.275000     1.000000
              2 -2px   
              3  2px   
              4 -2px   
              5 -2px   
              6  2px   
              7 -2px   
              8  2px   
    5.5 B1u   1  2py          1.275000     1.000000
              2 -2py   
              3 -2py   
              4  2py   
              5 -2py   
              6  2py   
              7  2py   
              8 -2py   
    1.6 B2g   1  1s          38.360000     0.023809    0.000000
    2.6 B2g   2 -1s           5.770000     0.154891    0.000000
              3  1s           1.240000     0.469987    0.000000
              4 -1s           0.297600     0.513027    1.000000
              5 -1s    
              6  1s    
              7 -1s    
              8  1s    
    3.6 B2g   1  2pz          1.275000     1.000000
              2 -2pz   
              3  2pz   
              4 -2pz   
              5  2pz   
              6 -2pz   
              7  2pz   
              8 -2pz   
    4.6 B2g   1  2px          1.275000     1.000000
              2  2px   
              3  2px   
              4  2px   
              5 -2px   
              6 -2px   
              7 -2px   
              8 -2px   
    5.6 B2g   1  2py          1.275000     1.000000
              2  2py   
              3 -2py   
              4 -2py   
              5 -2py   
              6 -2py   
              7  2py   
              8  2py   
    1.7 B3g   1  1s          38.360000     0.023809    0.000000
    2.7 B3g   2 -1s           5.770000     0.154891    0.000000
              3 -1s           1.240000     0.469987    0.000000
              4  1s           0.297600     0.513027    1.000000
              5 -1s    
              6  1s    
              7  1s    
              8 -1s    
    3.7 B3g   1  2pz          1.275000     1.000000
              2 -2pz   
              3 -2pz   
              4  2pz   
              5  2pz   
              6 -2pz   
              7 -2pz   
              8  2pz   
    4.7 B3g   1  2py          1.275000     1.000000
              2  2py   
              3  2py   
              4  2py   
              5 -2py   
              6 -2py   
              7 -2py   
              8 -2py   
    5.7 B3g   1  2px          1.275000     1.000000
              2  2px   
              3 -2px   
              4 -2px   
              5 -2px   
              6 -2px   
              7  2px   
              8  2px   
    1.8 Au    1  1s          38.360000     0.023809    0.000000
    2.8 Au    2  1s           5.770000     0.154891    0.000000
              3 -1s           1.240000     0.469987    0.000000
              4 -1s           0.297600     0.513027    1.000000
              5 -1s    
              6 -1s    
              7  1s    
              8  1s    
    3.8 Au    1  2pz          1.275000     1.000000
              2  2pz   
              3 -2pz   
              4 -2pz   
              5  2pz   
              6  2pz   
              7 -2pz   
              8 -2pz   
    4.8 Au    1  2py          1.275000     1.000000
              2 -2py   
              3  2py   
              4 -2py   
              5 -2py   
              6  2py   
              7 -2py   
              8  2py   
    5.8 Au    1  2px          1.275000     1.000000
              2 -2px   
              3 -2px   
              4  2px   
              5 -2px   
              6  2px   
              7  2px   
              8 -2px   

 NUCLEAR CHARGE:                   16
 NUMBER OF PRIMITIVE AOS:          56
 NUMBER OF SYMMETRY AOS:           56
 NUMBER OF CONTRACTIONS:           40   (    5Ag  +    5B3u +    5B2u +    5B1g +    5B1u +    5B2g +    5B3g +    5Au  )
 NUMBER OF CORE ORBITALS:           0   (    0Ag  +    0B3u +    0B2u +    0B1g +    0B1u +    0B2g +    0B3g +    0Au  )
 NUMBER OF VALENCE ORBITALS:        8   (    1Ag  +    1B3u +    1B2u +    1B1g +    1B1u +    1B2g +    1B3g +    1Au  )


 NUCLEAR REPULSION ENERGY   16.08323531

 Eigenvalues of metric

         1 0.114E+00 0.100E+01 0.100E+01 0.100E+01 0.192E+01
         2 0.112E+00 0.100E+01 0.100E+01 0.100E+01 0.190E+01
         3 0.112E+00 0.100E+01 0.100E+01 0.100E+01 0.190E+01
         4 0.110E+00 0.100E+01 0.100E+01 0.100E+01 0.188E+01
         5 0.112E+00 0.100E+01 0.100E+01 0.100E+01 0.190E+01
         6 0.110E+00 0.100E+01 0.100E+01 0.100E+01 0.188E+01
         7 0.110E+00 0.100E+01 0.100E+01 0.100E+01 0.188E+01
         8 0.108E+00 0.100E+01 0.100E+01 0.100E+01 0.186E+01


 Contracted 2-electron integrals neglected if value below      1.0D-11
 AO integral compression algorithm  1   Integral accuracy      1.0D-11

     0.786 MB (compressed) written to integral file ( 77.0%)


 NUMBER OF SORTED TWO-ELECTRON INTEGRALS:      46110.     BUFFER LENGTH:  32768
 NUMBER OF SEGMENTS:   1  SEGMENT LENGTH:      46110      RECORD LENGTH: 524288

 Memory used in sort:       0.60 MW

 SORT1 READ      154112. AND WROTE       46110. INTEGRALS IN      1 RECORDS. CPU TIME:     0.00 SEC, REAL TIME:     0.01 SEC
 SORT2 READ       46110. AND WROTE       46110. INTEGRALS IN      3 RECORDS. CPU TIME:     0.02 SEC, REAL TIME:     0.03 SEC

 FILE SIZES:   FILE 1:    30.9 MBYTE,  FILE 4:     4.2 MBYTE,   TOTAL:     35.1 MBYTE

 OPERATOR DM      FOR CENTER  0  COORDINATES:    0.000000    0.000000    0.000000


 **********************************************************************************************************************************
 DATASETS  * FILE   NREC   LENGTH (MB)   RECORD NAMES
              1      19       30.36       500      610      700      900      950      970     1000      129      960     1100   
                                          VAR    BASINP    GEOM    SYMINP    ZMAT    AOBASIS   BASIS     P2S    ABASIS      S 
                                         1400     1410     1200     1210     1080     1600     1650     1300     1700   
                                           T        V       H0       H01     AOSYM     SMH    MOLCAS    ERIS     OPER   

              3       4       12.40       500      610      700     1000   
                                          VAR    BASINP    GEOM     BASIS   

 PROGRAMS   *        TOTAL       INT      FILE
 CPU TIMES  *         0.44      0.26      0.00
 REAL TIME  *         0.64 SEC
 DISK USED  *        47.88 MB
 **********************************************************************************************************************************


 PROGRAM * RHF-SCF (CLOSED SHELL)       Authors: W. Meyer, H.-J. Werner


 NUMBER OF ELECTRONS:       8+    8-    SPACE SYMMETRY=1    SPIN SYMMETRY: Singlet 
 CONVERGENCE THRESHOLDS:    1.00E-05 (Density)    1.00E-07 (Energy)
 MAX. NUMBER OF ITERATIONS:       60
 INTERPOLATION TYPE:            DIIS
 INTERPOLATION STEPS:              2 (START)      1 (STEP)
 LEVEL SHIFTS:                  0.00 (CLOSED)  0.00 (OPEN) 

 Number of closed-shell orbitals:    8 (   1   1   1   1   1   1   1   1 )


 Orbital guess generated from atomic densities. Full valence occupancy:    1   1   1   1   1   1   1   1


 Molecular orbital dump at record        2100.3

 ITERATION    DDIFF          GRAD             ENERGY        2-EL.EN.            DIPOLE MOMENTS         DIIS   ORB.
    1      0.000D+00      0.000D+00       -22.84127272     48.596461    0.00000    0.00000    0.00000    0    start
    2      0.000D+00      0.155D-03       -22.84127344     48.596439    0.00000    0.00000    0.00000    1    diag
    3      0.308D-03      0.119D-04       -22.84127344     48.596435    0.00000    0.00000    0.00000    2    diag
    4      0.255D-04      0.159D-07       -22.84127344     48.596435    0.00000    0.00000    0.00000    3    diag
    5      0.193D-07      0.400D-09       -22.84127344     48.596435    0.00000    0.00000    0.00000    0    orth

 Final occupancy:   1   1   1   1   1   1   1   1

 !RHF STATE  1.1 Energy               -22.841273440359
 Nuclear energy                        16.08323531
 One-electron energy                  -63.22272619
 Two-electron energy                   24.29821743
 Virial quotient                       -0.99998351
 !RHF STATE  1.1 Dipole moment          0.00000000     0.00000000     0.00000000
 Dipole moment /Debye                   0.00000000     0.00000000     0.00000000

 MOLECULAR ORBITALS
 ==================

   Orb  Occ    Energy       Coefficients

                            1 1s      1 1s      1 2px     1 2py     1 2pz  

   1.1   2    -0.9197     0.989939  0.007260 -0.000255 -0.000255 -0.000255

   2.1   0     1.3251    -1.926736  2.146831 -0.003029 -0.003029 -0.003029

   3.1   0     2.5244     0.000000 -0.000000 -0.800920  0.262998  0.537921

   4.1   0     2.5244    -0.000000  0.000000 -0.158727  0.772980 -0.614253

   5.1   0     2.5244    -0.011821  0.014375  0.577343  0.577343  0.577343

                            1 1s      1 1s      1 2px     1 2py     1 2pz  

   1.2   2    -0.9159     0.996777  0.002303  0.000255 -0.000254 -0.000254

   2.2   0     1.3733    -1.935334  2.170479  0.003242 -0.003237 -0.003237

   3.2   0     2.5243     0.000000 -0.000000 -0.000000  0.707107 -0.707107

   4.2   0     2.5244    -0.004944  0.006019  0.524599  0.601993  0.601993

   5.2   0     2.5244     0.011612 -0.014139  0.851344 -0.370937 -0.370937

                            1 1s      1 1s      1 2py     1 2px     1 2pz  

   1.3   2    -0.9159     0.996777  0.002303  0.000255 -0.000254 -0.000254

   2.3   0     1.3733    -1.935334  2.170479  0.003242 -0.003237 -0.003237

   3.3   0     2.5243     0.000000 -0.000000 -0.000000  0.707107 -0.707107

   4.3   0     2.5244    -0.004944  0.006019  0.524599  0.601993  0.601993

   5.3   0     2.5244     0.011612 -0.014139  0.851344 -0.370937 -0.370937

                            1 1s      1 1s      1 2py     1 2px     1 2pz  

   1.4   2    -0.9123     1.003364 -0.002452  0.000255  0.000255 -0.000253

   2.4   0     1.4229    -1.944431  2.194710  0.003475  0.003475 -0.003470

   3.4   0     2.5244    -0.003451  0.004206  0.246947  0.246947  0.937034

   4.4   0     2.5244     0.000000 -0.000000  0.707107 -0.707107  0.000000

   5.4   0     2.5245     0.013071 -0.015933  0.662575  0.662575 -0.349222

                            1 1s      1 1s      1 2pz     1 2px     1 2py  

   1.5   2    -0.9159     0.996777  0.002303  0.000255 -0.000254 -0.000254

   2.5   0     1.3733    -1.935334  2.170479  0.003242 -0.003237 -0.003237

   3.5   0     2.5243     0.000000 -0.000000 -0.000000  0.707107 -0.707107

   4.5   0     2.5244    -0.004944  0.006019  0.524599  0.601993  0.601993

   5.5   0     2.5244     0.011612 -0.014139  0.851344 -0.370937 -0.370937

                            1 1s      1 1s      1 2pz     1 2px     1 2py  

   1.6   2    -0.9123     1.003364 -0.002452  0.000255  0.000255 -0.000253

   2.6   0     1.4229    -1.944431  2.194710  0.003475  0.003475 -0.003470

   3.6   0     2.5244    -0.003451  0.004206  0.246947  0.246947  0.937034

   4.6   0     2.5244     0.000000 -0.000000  0.707107 -0.707107 -0.000000

   5.6   0     2.5245     0.013071 -0.015933  0.662575  0.662575 -0.349222

                            1 1s      1 1s      1 2pz     1 2py     1 2px  

   1.7   2    -0.9123     1.003364 -0.002452  0.000255  0.000255 -0.000253

   2.7   0     1.4229    -1.944431  2.194710  0.003475  0.003475 -0.003470

   3.7   0     2.5244    -0.003451  0.004206  0.246947  0.246947  0.937034

   4.7   0     2.5244     0.000000 -0.000000  0.707107 -0.707107 -0.000000

   5.7   0     2.5245     0.013071 -0.015933  0.662575  0.662575 -0.349222

                            1 1s      1 1s      1 2pz     1 2py     1 2px  

   1.8   2    -0.9088     1.009706 -0.007007  0.000254  0.000254  0.000254

   2.8   0     1.4738    -1.954040  2.219549  0.003739  0.003739  0.003739

   3.8   0     2.5244     0.000000 -0.000000 -0.392648 -0.423652  0.816300

   4.8   0     2.5244    -0.000000  0.000000  0.715887 -0.697987 -0.017900

   5.8   0     2.5245     0.014532 -0.017735  0.577339  0.577339  0.577339


 HOMO      1.8    -0.908751 =     -24.7284eV
 LUMO      2.1     1.325067 =      36.0569eV
 LUMO-HOMO         2.233818 =      60.7853eV


 **********************************************************************************************************************************
 DATASETS  * FILE   NREC   LENGTH (MB)   RECORD NAMES
              1      19       30.36       500      610      700      900      950      970     1000      129      960     1100   
                                          VAR    BASINP    GEOM    SYMINP    ZMAT    AOBASIS   BASIS     P2S    ABASIS      S 
                                         1400     1410     1200     1210     1080     1600     1650     1300     1700   
                                           T        V       H0       H01     AOSYM     SMH    MOLCAS    ERIS     OPER   

              3       5       14.89       500      610      700     1000     2100   
                                          VAR    BASINP    GEOM     BASIS     RHF  

 PROGRAMS   *        TOTAL   RHF-SCF       INT      FILE
 CPU TIMES  *         0.51      0.07      0.26      0.00
 REAL TIME  *         0.73 SEC
 DISK USED  *        47.88 MB
 **********************************************************************************************************************************

 Dump information in style XML to orbitals.xml                                                                    

 Variables will not be exported.
 Molecular orbitals read from record     2100.3  Type=RHF/CANONICAL (state 1.1)
 Occupation numbers read from record     2100.3  Type=RHF/RHF (state 1.1)
 Orbital energies read from record       2100.3  Type=RHF/CANONICAL (state 1.1)
 Redundancy group numbers read from rec  2100.3  Type=RHF/RHF (state 1.1)

 **********************************************************************************************************************************

 RHF/cc-pVDZ energy=    -22.841273440359

         RHF-SCF
    -22.84127344
 **********************************************************************************************************************************
 Molpro calculation terminated
