
 Primary working directories    : /scr/yuriaoto/job.021295/molpro.KuDy0QwaGv
 Secondary working directories  : /scr/yuriaoto/job.021295/molpro.KuDy0QwaGv
 Wavefunction directory         : /scr/yuriaoto/job.021295/
 Main file repository           : /scr/yuriaoto/job.021295/molpro.KuDy0QwaGv/

 id        : yuriaoto

 Nodes             nprocs
 t-rex.ufabc.int.br    1

 Using customized tuning parameters: mindgm=8; mindgv=16; mindgc=1; mindgr=1; noblas=0; minvec=7
 default implementation of scratch files=df  


 Variables initialized (933), CPU time= 0.00 sec
 ***,
 memory,40,m
 
 basis = STO-3G
 
 nosym
 geom={Li1;Li2,Li1,r}
 
 r = 5.0
 
 {rhf
 wf,6,1,0
 orbital,2100.2
 }
 {uhf,
 start,2100.2
 rotate,1.1,2.1,45
 rotate,3.1,4.1,45
 wf,6,1,0
 }
 
 {fci
 wf,6,1,0;
 core,0
 }
 Commands  initialized (760), CPU time= 0.01 sec, 617 directives.
 Default parameters read. Elapsed time= 0.53 sec

 Checking input...
 Passed
1


                                         ***  PROGRAM SYSTEM MOLPRO  ***
                                       Copyright, TTI GmbH Stuttgart, 2015
                                    Version 2019.2 linked Abr  7 2019 15:10:35


 **********************************************************************************************************************************
 LABEL *                                                                                 
  64 bit serial version                                                                  DATE: 27-Jun-19          TIME: 14:56:54  
 **********************************************************************************************************************************

 SHA1:             3a8a58c585c929645742fb5a1b7541a4ad1da699
 **********************************************************************************************************************************

 Variable memory set to   40000000 words,  buffer space 

 SETTING BASIS          =    STO-3G
 ZSYMEL=NOSYM

 SETTING R              =         5.00000000                                  


 Recomputing integrals since basis changed


 Using spherical harmonics

 Library entry LI     S STO-3G               selected for orbital group  1
 Library entry LI     P STO-3G               selected for orbital group  1


 PROGRAM * SEWARD (Integral evaluation for generally contracted gaussian basis sets)     Author: Roland Lindh, 1990

 Geometry written to block  1 of record 700

 Orientation using atomic masses  
 Molecule type: Linear
 Rotational constants:      20.8009354     20.8009354      0.0000000 GHz  (calculated with average atomic masses)

 Point group  C1  



 ATOMIC COORDINATES

 NR  ATOM    CHARGE       X              Y              Z

   1  LI1     3.00    0.000000000    0.000000000   -2.500000000
   2  LI2     3.00    0.000000000    0.000000000    2.500000000

 Bond lengths in Bohr (Angstrom)

 1-2  5.000000000
     ( 2.645886055)

 NUCLEAR CHARGE:                    6
 NUMBER OF PRIMITIVE AOS:          30
 NUMBER OF SYMMETRY AOS:           30
 NUMBER OF CONTRACTIONS:           10   (   10A   )
 NUMBER OF CORE ORBITALS:           2   (    2A   )
 NUMBER OF VALENCE ORBITALS:        8   (    8A   )


 NUCLEAR REPULSION ENERGY    1.80000000

 EXTRA SYMMETRY OF AOS IN SYMMETRY 1:   1 1 2 3 1 1 1 2 3 1

 Eigenvalues of metric

         1 0.155E+00 0.713E+00 0.713E+00 0.805E+00 0.846E+00 0.104E+01 0.123E+01 0.129E+01


 Contracted 2-electron integrals neglected if value below      1.0D-11
 AO integral compression algorithm  1   Integral accuracy      1.0D-11

     0.262 MB (compressed) written to integral file ( 65.1%)


 NUMBER OF SORTED TWO-ELECTRON INTEGRALS:       1540.     BUFFER LENGTH:  32768
 NUMBER OF SEGMENTS:   1  SEGMENT LENGTH:       1540      RECORD LENGTH: 524288

 Memory used in sort:       0.56 MW

 SORT1 READ        2389. AND WROTE         512. INTEGRALS IN      1 RECORDS. CPU TIME:     0.00 SEC, REAL TIME:     0.04 SEC
 SORT2 READ         512. AND WROTE        1540. INTEGRALS IN      1 RECORDS. CPU TIME:     0.00 SEC, REAL TIME:     0.01 SEC

 FILE SIZES:   FILE 1:    30.2 MBYTE,  FILE 4:     4.2 MBYTE,   TOTAL:     34.4 MBYTE

 OPERATOR DM      FOR CENTER  0  COORDINATES:    0.000000    0.000000    0.000000


 **********************************************************************************************************************************
 DATASETS  * FILE   NREC   LENGTH (MB)   RECORD NAMES
              1      19       29.95       500      610      700      900      950      970     1000      129      960     1100   
                                          VAR    BASINP    GEOM    SYMINP    ZMAT    AOBASIS   BASIS     P2S    ABASIS      S 
                                         1400     1410     1200     1210     1080     1600     1650     1300     1700   
                                           T        V       H0       H01     AOSYM     SMH    MOLCAS    ERIS     OPER   

 PROGRAMS   *        TOTAL       INT
 CPU TIMES  *         0.30      0.18
 REAL TIME  *         4.10 SEC
 DISK USED  *        34.69 MB
 **********************************************************************************************************************************


 PROGRAM * RHF-SCF (CLOSED SHELL)       Authors: W. Meyer, H.-J. Werner


 NUMBER OF ELECTRONS:       3+    3-    SPACE SYMMETRY=1    SPIN SYMMETRY: Singlet 
 CONVERGENCE THRESHOLDS:    1.00E-05 (Density)    1.00E-07 (Energy)
 MAX. NUMBER OF ITERATIONS:       60
 INTERPOLATION TYPE:            DIIS
 INTERPOLATION STEPS:              2 (START)      1 (STEP)
 LEVEL SHIFTS:                  0.00 (CLOSED)  0.00 (OPEN) 



 Orbital guess generated from atomic densities. Full valence occupancy:    3

 Molecular orbital dump at record        2100.2

 Initial occupancy:   3

 ITERATION    DDIFF          GRAD             ENERGY        2-EL.EN.            DIPOLE MOMENTS         DIIS   ORB.
    1      0.000D+00      0.000D+00       -14.63822206     13.601098    0.00000    0.00000   -0.00000    0    start
    2      0.000D+00      0.264D-02       -14.63857650     13.620982    0.00000    0.00000    0.00000    1    diag
    3      0.461D-02      0.730D-03       -14.63863905     13.634363    0.00000    0.00000   -0.00000    2    diag
    4      0.263D-02      0.133D-03       -14.63864283     13.638984    0.00000   -0.00000    0.00000    3    diag
    5      0.832D-03      0.252D-05       -14.63864283     13.639061    0.00000   -0.00000    0.00000    4    diag
    6      0.145D-04      0.502D-07       -14.63864283     13.639062    0.00000   -0.00000    0.00000    5    diag
    7      0.273D-06      0.961D-09       -14.63864283     13.639062    0.00000   -0.00000    0.00000    0    orth

 Final occupancy:   3

 !RHF STATE  1.1 Energy               -14.638642833983
 Nuclear energy                         1.80000000
 One-electron energy                  -23.25817394
 Two-electron energy                    6.81953110
 Virial quotient                       -0.98778634
 !RHF STATE  1.1 Dipole moment          0.00000000    -0.00000000     0.00000000
 Dipole moment /Debye                   0.00000000    -0.00000000     0.00000000

 Orbital energies:

         1.1          2.1          3.1          4.1          5.1
     -2.329751    -2.329733    -0.150071     0.083362     0.133057


 HOMO      3.1    -0.150071 =      -4.0836eV
 LUMO      4.1     0.083362 =       2.2684eV
 LUMO-HOMO         0.233433 =       6.3520eV


 **********************************************************************************************************************************
 DATASETS  * FILE   NREC   LENGTH (MB)   RECORD NAMES
              1      19       29.95       500      610      700      900      950      970     1000      129      960     1100   
                                          VAR    BASINP    GEOM    SYMINP    ZMAT    AOBASIS   BASIS     P2S    ABASIS      S 
                                         1400     1410     1200     1210     1080     1600     1650     1300     1700   
                                           T        V       H0       H01     AOSYM     SMH    MOLCAS    ERIS     OPER   

              2       4        2.75       700     1000      520     2100   
                                         GEOM     BASIS   MCVARS     RHF  

 PROGRAMS   *        TOTAL   RHF-SCF       INT
 CPU TIMES  *         0.41      0.11      0.18
 REAL TIME  *         5.52 SEC
 DISK USED  *        34.69 MB
 **********************************************************************************************************************************


 PROGRAM * UHF-SCF       Authors: W. Meyer, H.-J. Werner


 NUMBER OF ELECTRONS:       3+    3-    SPACE SYMMETRY=1    SPIN SYMMETRY: Singlet 
 CONVERGENCE THRESHOLDS:    1.00E-05 (Density)    1.00E-07 (Energy)
 MAX. NUMBER OF ITERATIONS:       60
 INTERPOLATION TYPE:            DIIS
 INTERPOLATION STEPS:              2 (START)      1 (STEP)
 LEVEL SHIFTS:                 -0.20 (ALPHA)  -0.20 (BETA) 



 Molecular orbitals read from record     2100.2  Type=RHF/CANONICAL (state 1.1)

 Molecular orbital dump at record        2200.2

 ROTATION OF BETA  ORBITALS   1.1    2.1       45.00 DEGREES
 ROTATION OF BETA  ORBITALS   3.1    4.1       45.00 DEGREES

 Initial alpha occupation   3
 Initial beta  occupation   3

 ITERATION    DDIFF          GRAD             ENERGY        2-EL.EN.            DIPOLE MOMENTS         DIIS
    1      0.000D+00      0.000D+00       -14.60656561     13.436078    0.00000   -0.00000    2.35737    0
    2      0.160D-01      0.724D-02       -14.61543643     13.460329    0.00000   -0.00000    2.09722    1
    3      0.289D-01      0.557D-02       -14.62902682     13.497370    0.00000    0.00000    1.60676    2
    4      0.280D-01      0.353D-02       -14.63788942     13.496416    0.00000    0.00000    1.05745    3
    5      0.179D-01      0.188D-02       -14.64033955     13.462476    0.00000   -0.00000    0.62937    4
    6      0.549D-02      0.641D-03       -14.64068858     13.459546    0.00000   -0.00000    0.46485    5
    7      0.386D-02      0.571D-03       -14.64090122     13.465679    0.00000   -0.00000    0.32524    6
    8      0.407D-02      0.452D-03       -14.64108190     13.479577   -0.00000    0.00000    0.17952    7
    9      0.462D-02      0.215D-03       -14.64114400     13.488404   -0.00000    0.00000   -0.00536    8
   10      0.692D-03      0.512D-04       -14.64114472     13.489410   -0.00000    0.00000    0.01456    9
   11      0.281D-03      0.296D-04       -14.64114518     13.489112   -0.00000    0.00000    0.00433    9
   12      0.857D-04      0.132D-04       -14.64114524     13.488728   -0.00000    0.00000    0.00264    9
   13      0.567D-04      0.766D-05       -14.64114529     13.488516   -0.00000    0.00000    0.00202    8
   14      0.168D-03      0.626D-05       -14.64114536     13.487851   -0.00000    0.00000    0.00042    8
   15      0.260D-04      0.160D-05       -14.64114536     13.487728   -0.00000    0.00000    0.00020    8
   16      0.610D-05      0.717D-06       -14.64114536     13.487722   -0.00000    0.00000    0.00000    7
   17      0.161D-05      0.194D-06       -14.64114536     13.487715    0.00000    0.00000   -0.00000    8

 Final alpha occupancy:   3
 Final beta  occupancy:   3

 !UHF STATE  1.1 Energy               -14.641145359650
 Nuclear energy                         1.80000000
 One-electron energy                  -23.18500283
 Two-electron energy                    6.74385747
 Virial quotient                       -0.98756819
 !UHF STATE  1.1 Dipole moment          0.00000000     0.00000000    -0.00000103
 Dipole moment /Debye                   0.00000000     0.00000000    -0.00000262

 Orbital energies for positive spin:

         1.1          2.1          3.1          4.1          5.1
     -2.349930    -2.330984    -0.167729     0.088069     0.123270

 Orbital energies for negative spin:

         1.1          2.1          3.1          4.1          5.1
     -2.349931    -2.330984    -0.167730     0.088069     0.123270


 HOMO      3.1    -0.167729 =      -4.5642eV
 LUMO      4.1     0.088069 =       2.3965eV
 LUMO-HOMO         0.255798 =       6.9606eV

 EXPECTATION VALUE OF S**2:             0.38255674

 Occupation number threshold for pseudo-canonical orbitals: 1.9990 (occupied), 0.0010 (virtual)

 Number of pseudo-canonical occupied orbitals per symmetry:    2
 Number of active natural orbitals per symmetry:               2

 Natural orbitals saved to record    2200.2 (Orbital set 3)

 Orbital spaces for UNO-CAS (Min. occupation: 0.020  Max. occupation: 1.980):

 Closed:        2
 Active:        2


 **********************************************************************************************************************************
 DATASETS  * FILE   NREC   LENGTH (MB)   RECORD NAMES
              1      19       29.95       500      610      700      900      950      970     1000      129      960     1100   
                                          VAR    BASINP    GEOM    SYMINP    ZMAT    AOBASIS   BASIS     P2S    ABASIS      S 
                                         1400     1410     1200     1210     1080     1600     1650     1300     1700   
                                           T        V       H0       H01     AOSYM     SMH    MOLCAS    ERIS     OPER   

              2       5        5.25       700     1000      520     2100     2200   
                                         GEOM     BASIS   MCVARS     RHF      UHF  

 PROGRAMS   *        TOTAL   UHF-SCF   RHF-SCF       INT
 CPU TIMES  *         0.62      0.21      0.11      0.18
 REAL TIME  *         8.15 SEC
 DISK USED  *        35.30 MB
 **********************************************************************************************************************************


 PROGRAM * FCI (Full CI)     Author: P.J. Knowles, 1984


   0 Spin projections

 Molecular orbitals read from record     2200.2  Type=UHF/ALPHA (state 1.1)
 Molecular orbitals read from record     2200.2  Type=UHF/BETA (state 1.1)

 Frozen orbitals:              0 (  0  0  0  0  0  0  0  0)
 Active orbitals:             10 ( 10  0  0  0  0  0  0  0)
 Active electrons:             6
 Spin quantum number:          0.0
 Orbital pairs:                    55       0       0       0       0       0       0       0
 Strings:                         120       0       0       0       0       0       0       0
                                  120       0       0       0       0       0       0       0
 Determinants:                          14400               0               0               0
                                            0               0               0               0

 Load integrals                1.4 sec
 Transform integrals           1.4 sec
 Storage for integrals:           9695
 Remaining memory:            39989905

 Core energy:               1.80000000
 Run Hamiltonian processor DAVIDSON
 Symmetry:                   1
 Trial vector:                  0.00
 Result vector:                 0.00
 Maximum iterations:           90
 Convergence threshold:         0.0000100
 RHS vector:                    0.00
 Hamiltonian shift:             0.0000000
 Output threshold:              0.0000000
 Options:                        0
 Number of roots:             1

 Hamiltonian diagonaliser entered at time      1.40

 Initial configuration generated:
       1      1.0000000    -14.6101147

 It  Tr    CPU  Convergence   Energy       Pop     dE(next)

  1   1    1.4  1.00000000   -14.64114536
                                           0.01 -0.02458388 -0.02454951
  2   1    1.4  0.23080188   -14.65876330
                                           0.01 -0.00406728 -0.00403214
  3   1    1.4  0.19487820   -14.66385529
                                           0.02 -0.00181047 -0.00179226
  4   1    1.4  0.13313370   -14.66657256
                                           0.03 -0.00061412 -0.00060724
  5   1    1.4  0.05354500   -14.66731169
                                           0.04 -0.00005865 -0.00005770
  6   1    1.5  0.01182496   -14.66736171
                                           0.05 -0.00001099 -0.00001072
  7   1    1.5  0.00529090   -14.66737096
                                           0.09 -0.00000086 -0.00000083
  8   1    1.5  0.00145118   -14.66737194
                                           0.15 -0.00000008 -0.00000007
  9   1    1.5  0.00035393   -14.66737203
                                           0.18 -0.00000001 -0.00000001
 10   1    1.5  0.00011396   -14.66737204
                                           0.18 -0.00000000 -0.00000000
 11   1    1.6  0.00005060   -14.66737204
                                           0.21 -0.00000000 -0.00000000
 12   1    1.6  0.00002507   -14.66737204
                                           0.20 -0.00000000 -0.00000000
 13   1    1.6  0.00000904   -14.66737204


RESULTS FOR STATE  1.1
=====================

 Correlation energy                    -0.026226679675
 !FCI STATE  1.1 Energy               -14.667372039325
 CI Vector (threshold=  0.00    )
       0.868978340760  1  2  3  1  2  3
      -0.237228712868  1  2  3  1  2  4
       0.000000000000  1  2  3  1  2  5
       0.000000000000  1  2  3  1  2  6
      -0.072678494888  1  2  3  1  2  7
       0.000000000000  1  2  3  1  2  8
       0.000000000000  1  2  3  1  2  9
      -0.017044975856  1  2  3  1  2 10
      -0.000321264221  1  2  3  1  3  4
       0.000000000000  1  2  3  1  3  5
       0.000000000000  1  2  3  1  3  6
      -0.000348459850  1  2  3  1  3  7
       0.000000000000  1  2  3  1  3  8
       0.000000000000  1  2  3  1  3  9
       0.000149307814  1  2  3  1  3 10
       0.000000000000  1  2  3  1  4  5
       0.000000000000  1  2  3  1  4  6
       0.000411096516  1  2  3  1  4  7
       0.000000000000  1  2  3  1  4  8
       0.000000000000  1  2  3  1  4  9
      -0.000251572764  1  2  3  1  4 10
       0.000000000000  1  2  3  1  5  6
       0.000000000000  1  2  3  1  5  7
       0.000186894713  1  2  3  1  5  8
       0.000291369411  1  2  3  1  5  9
       0.000000000000  1  2  3  1  5 10
       0.000000000000  1  2  3  1  6  7
      -0.000291369411  1  2  3  1  6  8
       0.000186894713  1  2  3  1  6  9
       0.000000000000  1  2  3  1  6 10
       0.000000000000  1  2  3  1  7  8
       0.000000000000  1  2  3  1  7  9
       0.000887596584  1  2  3  1  7 10
       0.000000000000  1  2  3  1  8  9
       0.000000000000  1  2  3  1  8 10
       0.000000000000  1  2  3  1  9 10
       0.001392264945  1  2  3  2  3  4
       0.000000000000  1  2  3  2  3  5
       0.000000000000  1  2  3  2  3  6
      -0.000337530828  1  2  3  2  3  7
       0.000000000000  1  2  3  2  3  8
       0.000000000000  1  2  3  2  3  9
      -0.000053848836  1  2  3  2  3 10
       0.000000000000  1  2  3  2  4  5
       0.000000000000  1  2  3  2  4  6
       0.000284324021  1  2  3  2  4  7
       0.000000000000  1  2  3  2  4  8
       0.000000000000  1  2  3  2  4  9
       0.000882523808  1  2  3  2  4 10
       0.000000000000  1  2  3  2  5  6
       0.000000000000  1  2  3  2  5  7
      -0.000262412810  1  2  3  2  5  8
      -0.000409150796  1  2  3  2  5  9
       0.000000000000  1  2  3  2  5 10
       0.000000000000  1  2  3  2  6  7
       0.000409150796  1  2  3  2  6  8
      -0.000262412810  1  2  3  2  6  9
       0.000000000000  1  2  3  2  6 10
       0.000000000000  1  2  3  2  7  8
       0.000000000000  1  2  3  2  7  9
      -0.001061049172  1  2  3  2  7 10
       0.000000000000  1  2  3  2  8  9
       0.000000000000  1  2  3  2  8 10
       0.000000000000  1  2  3  2  9 10
       0.000000000000  1  2  3  3  4  5
       0.000000000000  1  2  3  3  4  6
      -0.000056995029  1  2  3  3  4  7
       0.000000000000  1  2  3  3  4  8
       0.000000000000  1  2  3  3  4  9
       0.000025058562  1  2  3  3  4 10
       0.000000000000  1  2  3  3  5  6
       0.000000000000  1  2  3  3  5  7
      -0.000029489282  1  2  3  3  5  8
      -0.000045974733  1  2  3  3  5  9
       0.000000000000  1  2  3  3  5 10
       0.000000000000  1  2  3  3  6  7
       0.000045974733  1  2  3  3  6  8
      -0.000029489282  1  2  3  3  6  9
       0.000000000000  1  2  3  3  6 10
       0.000000000000  1  2  3  3  7  8
       0.000000000000  1  2  3  3  7  9
      -0.000095210525  1  2  3  3  7 10
       0.000000000000  1  2  3  3  8  9
       0.000000000000  1  2  3  3  8 10
       0.000000000000  1  2  3  3  9 10
       0.000000000000  1  2  3  4  5  6
       0.000000000000  1  2  3  4  5  7
       0.000007960566  1  2  3  4  5  8
       0.000012404664  1  2  3  4  5  9
       0.000000000000  1  2  3  4  5 10
       0.000000000000  1  2  3  4  6  7
      -0.000012404664  1  2  3  4  6  8
       0.000007960566  1  2  3  4  6  9
       0.000000000000  1  2  3  4  6 10
       0.000000000000  1  2  3  4  7  8
       0.000000000000  1  2  3  4  7  9
       0.000030487597  1  2  3  4  7 10
       0.000000000000  1  2  3  4  8  9
       0.000000000000  1  2  3  4  8 10
       0.000000000000  1  2  3  4  9 10
       0.000000000000  1  2  3  5  6  7
       0.000000000000  1  2  3  5  6  8
       0.000000000000  1  2  3  5  6  9
       0.000000000000  1  2  3  5  6 10
      -0.000001941090  1  2  3  5  7  8
      -0.000003008833  1  2  3  5  7  9
       0.000000000000  1  2  3  5  7 10
       0.000000000000  1  2  3  5  8  9
      -0.000000109478  1  2  3  5  8 10
      -0.000000168018  1  2  3  5  9 10
       0.000003008833  1  2  3  6  7  8
      -0.000001941090  1  2  3  6  7  9
       0.000000000000  1  2  3  6  7 10
       0.000000000000  1  2  3  6  8  9
       0.000000168018  1  2  3  6  8 10
      -0.000000109478  1  2  3  6  9 10
       0.000000000000  1  2  3  7  8  9
       0.000000000000  1  2  3  7  8 10
       0.000000000000  1  2  3  7  9 10
       0.000000000000  1  2  3  8  9 10
       0.237225269064  1  2  4  1  2  3
      -0.205774880098  1  2  4  1  2  4
       0.000000000000  1  2  4  1  2  5
       0.000000000000  1  2  4  1  2  6
      -0.082026448811  1  2  4  1  2  7
       0.000000000000  1  2  4  1  2  8
       0.000000000000  1  2  4  1  2  9
      -0.054767827674  1  2  4  1  2 10
       0.000694276838  1  2  4  1  3  4
       0.000000000000  1  2  4  1  3  5
       0.000000000000  1  2  4  1  3  6
      -0.001417540342  1  2  4  1  3  7
       0.000000000000  1  2  4  1  3  8
       0.000000000000  1  2  4  1  3  9
       0.002621871800  1  2  4  1  3 10
       0.000000000000  1  2  4  1  4  5
       0.000000000000  1  2  4  1  4  6
      -0.000033583857  1  2  4  1  4  7
       0.000000000000  1  2  4  1  4  8
       0.000000000000  1  2  4  1  4  9
      -0.000123930001  1  2  4  1  4 10
       0.000000000000  1  2  4  1  5  6
       0.000000000000  1  2  4  1  5  7
       0.000166584111  1  2  4  1  5  8
       0.000259705186  1  2  4  1  5  9
       0.000000000000  1  2  4  1  5 10
       0.000000000000  1  2  4  1  6  7
      -0.000259705186  1  2  4  1  6  8
       0.000166584111  1  2  4  1  6  9
       0.000000000000  1  2  4  1  6 10
       0.000000000000  1  2  4  1  7  8
       0.000000000000  1  2  4  1  7  9
       0.000782201419  1  2  4  1  7 10
       0.000000000000  1  2  4  1  8  9
       0.000000000000  1  2  4  1  8 10
       0.000000000000  1  2  4  1  9 10
       0.001733166371  1  2  4  2  3  4
       0.000000000000  1  2  4  2  3  5
       0.000000000000  1  2  4  2  3  6
       0.000281279137  1  2  4  2  3  7
       0.000000000000  1  2  4  2  3  8
       0.000000000000  1  2  4  2  3  9
       0.001051933545  1  2  4  2  3 10
       0.000000000000  1  2  4  2  4  5
       0.000000000000  1  2  4  2  4  6
      -0.000362096895  1  2  4  2  4  7
       0.000000000000  1  2  4  2  4  8
       0.000000000000  1  2  4  2  4  9
      -0.000699392046  1  2  4  2  4 10
       0.000000000000  1  2  4  2  5  6
       0.000000000000  1  2  4  2  5  7
       0.000024364259  1  2  4  2  5  8
       0.000038004699  1  2  4  2  5  9
       0.000000000000  1  2  4  2  5 10
       0.000000000000  1  2  4  2  6  7
      -0.000038004699  1  2  4  2  6  8
       0.000024364259  1  2  4  2  6  9
       0.000000000000  1  2  4  2  6 10
       0.000000000000  1  2  4  2  7  8
       0.000000000000  1  2  4  2  7  9
      -0.000253437413  1  2  4  2  7 10
       0.000000000000  1  2  4  2  8  9
       0.000000000000  1  2  4  2  8 10
       0.000000000000  1  2  4  2  9 10
       0.000000000000  1  2  4  3  4  5
       0.000000000000  1  2  4  3  4  6
      -0.000019529758  1  2  4  3  4  7
       0.000000000000  1  2  4  3  4  8
       0.000000000000  1  2  4  3  4  9
       0.000004735611  1  2  4  3  4 10
       0.000000000000  1  2  4  3  5  6
       0.000000000000  1  2  4  3  5  7
      -0.000006858145  1  2  4  3  5  8
      -0.000010685790  1  2  4  3  5  9
       0.000000000000  1  2  4  3  5 10
       0.000000000000  1  2  4  3  6  7
       0.000010685790  1  2  4  3  6  8
      -0.000006858145  1  2  4  3  6  9
       0.000000000000  1  2  4  3  6 10
       0.000000000000  1  2  4  3  7  8
       0.000000000000  1  2  4  3  7  9
      -0.000024279106  1  2  4  3  7 10
       0.000000000000  1  2  4  3  8  9
       0.000000000000  1  2  4  3  8 10
       0.000000000000  1  2  4  3  9 10
       0.000000000000  1  2  4  4  5  6
       0.000000000000  1  2  4  4  5  7
       0.000008359118  1  2  4  4  5  8
       0.000013012899  1  2  4  4  5  9
       0.000000000000  1  2  4  4  5 10
       0.000000000000  1  2  4  4  6  7
      -0.000013012899  1  2  4  4  6  8
       0.000008359118  1  2  4  4  6  9
       0.000000000000  1  2  4  4  6 10
       0.000000000000  1  2  4  4  7  8
       0.000000000000  1  2  4  4  7  9
       0.000030319924  1  2  4  4  7 10
       0.000000000000  1  2  4  4  8  9
       0.000000000000  1  2  4  4  8 10
       0.000000000000  1  2  4  4  9 10
       0.000000000000  1  2  4  5  6  7
       0.000000000000  1  2  4  5  6  8
       0.000000000000  1  2  4  5  6  9
       0.000000000000  1  2  4  5  6 10
      -0.000002587108  1  2  4  5  7  8
      -0.000004060595  1  2  4  5  7  9
       0.000000000000  1  2  4  5  7 10
       0.000000000000  1  2  4  5  8  9
       0.000004567197  1  2  4  5  8 10
       0.000007100452  1  2  4  5  9 10
       0.000004060595  1  2  4  6  7  8
      -0.000002587108  1  2  4  6  7  9
       0.000000000000  1  2  4  6  7 10
       0.000000000000  1  2  4  6  8  9
      -0.000007100452  1  2  4  6  8 10
       0.000004567197  1  2  4  6  9 10
       0.000000000000  1  2  4  7  8  9
       0.000000000000  1  2  4  7  8 10
       0.000000000000  1  2  4  7  9 10
       0.000000000000  1  2  4  8  9 10
       0.000000000000  1  2  5  1  2  3
       0.000000000000  1  2  5  1  2  4
      -0.135533906102  1  2  5  1  2  5
      -0.081439627798  1  2  5  1  2  6
       0.000000000000  1  2  5  1  2  7
       0.000733492619  1  2  5  1  2  8
       0.025078814397  1  2  5  1  2  9
       0.000000000000  1  2  5  1  2 10
       0.000000000000  1  2  5  1  3  4
      -0.001702291294  1  2  5  1  3  5
      -0.001022920394  1  2  5  1  3  6
       0.000000000000  1  2  5  1  3  7
       0.000080277959  1  2  5  1  3  8
       0.002744296491  1  2  5  1  3  9
       0.000000000000  1  2  5  1  3 10
       0.000267003718  1  2  5  1  4  5
       0.000160431050  1  2  5  1  4  6
       0.000000000000  1  2  5  1  4  7
      -0.000002351111  1  2  5  1  4  8
      -0.000080762103  1  2  5  1  4  9
       0.000000000000  1  2  5  1  4 10
       0.000000000000  1  2  5  1  5  6
      -0.000213425573  1  2  5  1  5  7
       0.000000000000  1  2  5  1  5  8
       0.000000000000  1  2  5  1  5  9
       0.000255700031  1  2  5  1  5 10
      -0.000128203836  1  2  5  1  6  7
       0.000000000000  1  2  5  1  6  8
       0.000000000000  1  2  5  1  6  9
       0.000153686666  1  2  5  1  6 10
      -0.000003458995  1  2  5  1  7  8
      -0.000119805257  1  2  5  1  7  9
       0.000000000000  1  2  5  1  7 10
       0.000000000000  1  2  5  1  8  9
      -0.000014093871  1  2  5  1  8 10
      -0.000481893730  1  2  5  1  9 10
       0.000000000000  1  2  5  2  3  4
      -0.001177629144  1  2  5  2  3  5
      -0.000707614424  1  2  5  2  3  6
       0.000000000000  1  2  5  2  3  7
      -0.000034084992  1  2  5  2  3  8
      -0.001165452860  1  2  5  2  3  9
       0.000000000000  1  2  5  2  3 10
       0.000915008835  1  2  5  2  4  5
       0.000549829920  1  2  5  2  4  6
       0.000000000000  1  2  5  2  4  7
       0.000025705423  1  2  5  2  4  8
       0.000878868321  1  2  5  2  4  9
       0.000000000000  1  2  5  2  4 10
       0.000000000000  1  2  5  2  5  6
      -0.000389984859  1  2  5  2  5  7
       0.000000000000  1  2  5  2  5  8
       0.000000000000  1  2  5  2  5  9
      -0.000563160359  1  2  5  2  5 10
      -0.000234351742  1  2  5  2  6  7
       0.000000000000  1  2  5  2  6  8
       0.000000000000  1  2  5  2  6  9
      -0.000338409479  1  2  5  2  6 10
       0.000009032418  1  2  5  2  7  8
       0.000308971915  1  2  5  2  7  9
       0.000000000000  1  2  5  2  7 10
       0.000000000000  1  2  5  2  8  9
      -0.000012537790  1  2  5  2  8 10
      -0.000428739024  1  2  5  2  9 10
      -0.000005146422  1  2  5  3  4  5
      -0.000003108297  1  2  5  3  4  6
       0.000000000000  1  2  5  3  4  7
       0.000000000000  1  2  5  3  4  8
      -0.000000039225  1  2  5  3  4  9
       0.000000000000  1  2  5  3  4 10
       0.000000000000  1  2  5  3  5  6
      -0.000001929480  1  2  5  3  5  7
       0.000000000000  1  2  5  3  5  8
       0.000000000000  1  2  5  3  5  9
       0.000001624222  1  2  5  3  5 10
      -0.000001152113  1  2  5  3  6  7
       0.000000000000  1  2  5  3  6  8
       0.000000000000  1  2  5  3  6  9
       0.000000948196  1  2  5  3  6 10
       0.000000000000  1  2  5  3  7  8
      -0.000000652237  1  2  5  3  7  9
       0.000000000000  1  2  5  3  7 10
       0.000000000000  1  2  5  3  8  9
       0.000000076430  1  2  5  3  8 10
       0.000002550973  1  2  5  3  9 10
       0.000000000000  1  2  5  4  5  6
      -0.000008684766  1  2  5  4  5  7
       0.000000000000  1  2  5  4  5  8
       0.000000000000  1  2  5  4  5  9
       0.000003286193  1  2  5  4  5 10
      -0.000005204774  1  2  5  4  6  7
       0.000000000000  1  2  5  4  6  8
       0.000000000000  1  2  5  4  6  9
       0.000001961822  1  2  5  4  6 10
      -0.000000061655  1  2  5  4  7  8
      -0.000001813244  1  2  5  4  7  9
       0.000000000000  1  2  5  4  7 10
       0.000000000000  1  2  5  4  8  9
       0.000000093934  1  2  5  4  8 10
       0.000003253285  1  2  5  4  9 10
       0.000000000000  1  2  5  5  6  7
      -0.000007945443  1  2  5  5  6  8
       0.000000229478  1  2  5  5  6  9
       0.000000000000  1  2  5  5  6 10
       0.000000000000  1  2  5  5  7  8
       0.000000000000  1  2  5  5  7  9
       0.000011460040  1  2  5  5  7 10
      -0.000000369072  1  2  5  5  8  9
       0.000000000000  1  2  5  5  8 10
       0.000000000000  1  2  5  5  9 10
       0.000000000000  1  2  5  6  7  8
       0.000000000000  1  2  5  6  7  9
       0.000006893952  1  2  5  6  7 10
       0.000000616481  1  2  5  6  8  9
       0.000000000000  1  2  5  6  8 10
       0.000000000000  1  2  5  6  9 10
       0.000000000000  1  2  5  7  8  9
       0.000000089011  1  2  5  7  8 10
       0.000002263856  1  2  5  7  9 10
       0.000000000000  1  2  5  8  9 10
       0.000000000000  1  2  6  1  2  3
       0.000000000000  1  2  6  1  2  4
       0.081439627798  1  2  6  1  2  5
      -0.135533906102  1  2  6  1  2  6
       0.000000000000  1  2  6  1  2  7
      -0.025078814397  1  2  6  1  2  8
       0.000733492619  1  2  6  1  2  9
       0.000000000000  1  2  6  1  2 10
       0.000000000000  1  2  6  1  3  4
       0.001022920394  1  2  6  1  3  5
      -0.001702291294  1  2  6  1  3  6
       0.000000000000  1  2  6  1  3  7
      -0.002744296491  1  2  6  1  3  8
       0.000080277959  1  2  6  1  3  9
       0.000000000000  1  2  6  1  3 10
      -0.000160431050  1  2  6  1  4  5
       0.000267003718  1  2  6  1  4  6
       0.000000000000  1  2  6  1  4  7
       0.000080762103  1  2  6  1  4  8
      -0.000002351111  1  2  6  1  4  9
       0.000000000000  1  2  6  1  4 10
       0.000000000000  1  2  6  1  5  6
       0.000128203836  1  2  6  1  5  7
       0.000000000000  1  2  6  1  5  8
       0.000000000000  1  2  6  1  5  9
      -0.000153686666  1  2  6  1  5 10
      -0.000213425573  1  2  6  1  6  7
       0.000000000000  1  2  6  1  6  8
       0.000000000000  1  2  6  1  6  9
       0.000255700031  1  2  6  1  6 10
       0.000119805257  1  2  6  1  7  8
      -0.000003458995  1  2  6  1  7  9
       0.000000000000  1  2  6  1  7 10
       0.000000000000  1  2  6  1  8  9
       0.000481893730  1  2  6  1  8 10
      -0.000014093871  1  2  6  1  9 10
       0.000000000000  1  2  6  2  3  4
       0.000707614424  1  2  6  2  3  5
      -0.001177629144  1  2  6  2  3  6
       0.000000000000  1  2  6  2  3  7
       0.001165452860  1  2  6  2  3  8
      -0.000034084992  1  2  6  2  3  9
       0.000000000000  1  2  6  2  3 10
      -0.000549829920  1  2  6  2  4  5
       0.000915008835  1  2  6  2  4  6
       0.000000000000  1  2  6  2  4  7
      -0.000878868321  1  2  6  2  4  8
       0.000025705423  1  2  6  2  4  9
       0.000000000000  1  2  6  2  4 10
       0.000000000000  1  2  6  2  5  6
       0.000234351742  1  2  6  2  5  7
       0.000000000000  1  2  6  2  5  8
       0.000000000000  1  2  6  2  5  9
       0.000338409479  1  2  6  2  5 10
      -0.000389984859  1  2  6  2  6  7
       0.000000000000  1  2  6  2  6  8
       0.000000000000  1  2  6  2  6  9
      -0.000563160359  1  2  6  2  6 10
      -0.000308971915  1  2  6  2  7  8
       0.000009032418  1  2  6  2  7  9
       0.000000000000  1  2  6  2  7 10
       0.000000000000  1  2  6  2  8  9
       0.000428739024  1  2  6  2  8 10
      -0.000012537790  1  2  6  2  9 10
       0.000003108297  1  2  6  3  4  5
      -0.000005146422  1  2  6  3  4  6
       0.000000000000  1  2  6  3  4  7
       0.000000039225  1  2  6  3  4  8
       0.000000000000  1  2  6  3  4  9
       0.000000000000  1  2  6  3  4 10
       0.000000000000  1  2  6  3  5  6
       0.000001152113  1  2  6  3  5  7
       0.000000000000  1  2  6  3  5  8
       0.000000000000  1  2  6  3  5  9
      -0.000000948196  1  2  6  3  5 10
      -0.000001929480  1  2  6  3  6  7
       0.000000000000  1  2  6  3  6  8
       0.000000000000  1  2  6  3  6  9
       0.000001624222  1  2  6  3  6 10
       0.000000652237  1  2  6  3  7  8
       0.000000000000  1  2  6  3  7  9
       0.000000000000  1  2  6  3  7 10
       0.000000000000  1  2  6  3  8  9
      -0.000002550973  1  2  6  3  8 10
       0.000000076430  1  2  6  3  9 10
       0.000000000000  1  2  6  4  5  6
       0.000005204774  1  2  6  4  5  7
       0.000000000000  1  2  6  4  5  8
       0.000000000000  1  2  6  4  5  9
      -0.000001961822  1  2  6  4  5 10
      -0.000008684766  1  2  6  4  6  7
       0.000000000000  1  2  6  4  6  8
       0.000000000000  1  2  6  4  6  9
       0.000003286193  1  2  6  4  6 10
       0.000001813244  1  2  6  4  7  8
      -0.000000061655  1  2  6  4  7  9
       0.000000000000  1  2  6  4  7 10
       0.000000000000  1  2  6  4  8  9
      -0.000003253285  1  2  6  4  8 10
       0.000000093934  1  2  6  4  9 10
       0.000000000000  1  2  6  5  6  7
      -0.000000229478  1  2  6  5  6  8
      -0.000007945443  1  2  6  5  6  9
       0.000000000000  1  2  6  5  6 10
       0.000000000000  1  2  6  5  7  8
       0.000000000000  1  2  6  5  7  9
      -0.000006893952  1  2  6  5  7 10
      -0.000000616481  1  2  6  5  8  9
       0.000000000000  1  2  6  5  8 10
       0.000000000000  1  2  6  5  9 10
       0.000000000000  1  2  6  6  7  8
       0.000000000000  1  2  6  6  7  9
       0.000011460040  1  2  6  6  7 10
      -0.000000369072  1  2  6  6  8  9
       0.000000000000  1  2  6  6  8 10
       0.000000000000  1  2  6  6  9 10
       0.000000000000  1  2  6  7  8  9
      -0.000002263856  1  2  6  7  8 10
       0.000000089011  1  2  6  7  9 10
       0.000000000000  1  2  6  8  9 10
      -0.072676414713  1  2  7  1  2  3
       0.082023231335  1  2  7  1  2  4
       0.000000000000  1  2  7  1  2  5
       0.000000000000  1  2  7  1  2  6
      -0.073623273487  1  2  7  1  2  7
       0.000000000000  1  2  7  1  2  8
       0.000000000000  1  2  7  1  2  9
       0.016691846686  1  2  7  1  2 10
      -0.000477206238  1  2  7  1  3  4
       0.000000000000  1  2  7  1  3  5
       0.000000000000  1  2  7  1  3  6
      -0.002303257640  1  2  7  1  3  7
       0.000000000000  1  2  7  1  3  8
       0.000000000000  1  2  7  1  3  9
       0.001972846714  1  2  7  1  3 10
       0.000000000000  1  2  7  1  4  5
       0.000000000000  1  2  7  1  4  6
       0.000444755936  1  2  7  1  4  7
       0.000000000000  1  2  7  1  4  8
       0.000000000000  1  2  7  1  4  9
      -0.000152367798  1  2  7  1  4 10
       0.000000000000  1  2  7  1  5  6
       0.000000000000  1  2  7  1  5  7
      -0.000060297508  1  2  7  1  5  8
      -0.000094057227  1  2  7  1  5  9
       0.000000000000  1  2  7  1  5 10
       0.000000000000  1  2  7  1  6  7
       0.000094057227  1  2  7  1  6  8
      -0.000060297508  1  2  7  1  6  9
       0.000000000000  1  2  7  1  6 10
       0.000000000000  1  2  7  1  7  8
       0.000000000000  1  2  7  1  7  9
       0.000012738268  1  2  7  1  7 10
       0.000000000000  1  2  7  1  8  9
       0.000000000000  1  2  7  1  8 10
       0.000000000000  1  2  7  1  9 10
       0.000825206229  1  2  7  2  3  4
       0.000000000000  1  2  7  2  3  5
       0.000000000000  1  2  7  2  3  6
      -0.001752014783  1  2  7  2  3  7
       0.000000000000  1  2  7  2  3  8
       0.000000000000  1  2  7  2  3  9
      -0.002321462718  1  2  7  2  3 10
       0.000000000000  1  2  7  2  4  5
       0.000000000000  1  2  7  2  4  6
       0.001386544415  1  2  7  2  4  7
       0.000000000000  1  2  7  2  4  8
       0.000000000000  1  2  7  2  4  9
       0.001791882710  1  2  7  2  4 10
       0.000000000000  1  2  7  2  5  6
       0.000000000000  1  2  7  2  5  7
       0.000008173557  1  2  7  2  5  8
       0.000012722146  1  2  7  2  5  9
       0.000000000000  1  2  7  2  5 10
       0.000000000000  1  2  7  2  6  7
      -0.000012722146  1  2  7  2  6  8
       0.000008173557  1  2  7  2  6  9
       0.000000000000  1  2  7  2  6 10
       0.000000000000  1  2  7  2  7  8
       0.000000000000  1  2  7  2  7  9
      -0.000072919340  1  2  7  2  7 10
       0.000000000000  1  2  7  2  8  9
       0.000000000000  1  2  7  2  8 10
       0.000000000000  1  2  7  2  9 10
       0.000000000000  1  2  7  3  4  5
       0.000000000000  1  2  7  3  4  6
       0.000000440184  1  2  7  3  4  7
       0.000000000000  1  2  7  3  4  8
       0.000000000000  1  2  7  3  4  9
      -0.000004855905  1  2  7  3  4 10
       0.000000000000  1  2  7  3  5  6
       0.000000000000  1  2  7  3  5  7
       0.000003259742  1  2  7  3  5  8
       0.000005103186  1  2  7  3  5  9
       0.000000000000  1  2  7  3  5 10
       0.000000000000  1  2  7  3  6  7
      -0.000005103186  1  2  7  3  6  8
       0.000003259742  1  2  7  3  6  9
       0.000000000000  1  2  7  3  6 10
       0.000000000000  1  2  7  3  7  8
       0.000000000000  1  2  7  3  7  9
       0.000007614336  1  2  7  3  7 10
       0.000000000000  1  2  7  3  8  9
       0.000000000000  1  2  7  3  8 10
       0.000000000000  1  2  7  3  9 10
       0.000000000000  1  2  7  4  5  6
       0.000000000000  1  2  7  4  5  7
      -0.000003130217  1  2  7  4  5  8
      -0.000004920806  1  2  7  4  5  9
       0.000000000000  1  2  7  4  5 10
       0.000000000000  1  2  7  4  6  7
       0.000004920806  1  2  7  4  6  8
      -0.000003130217  1  2  7  4  6  9
       0.000000000000  1  2  7  4  6 10
       0.000000000000  1  2  7  4  7  8
       0.000000000000  1  2  7  4  7  9
      -0.000008417697  1  2  7  4  7 10
       0.000000000000  1  2  7  4  8  9
       0.000000000000  1  2  7  4  8 10
       0.000000000000  1  2  7  4  9 10
       0.000000000000  1  2  7  5  6  7
       0.000000000000  1  2  7  5  6  8
       0.000000000000  1  2  7  5  6  9
       0.000000000000  1  2  7  5  6 10
      -0.000000830328  1  2  7  5  7  8
      -0.000001256401  1  2  7  5  7  9
       0.000000000000  1  2  7  5  7 10
       0.000000000000  1  2  7  5  8  9
      -0.000001274862  1  2  7  5  8 10
      -0.000001993922  1  2  7  5  9 10
       0.000001256401  1  2  7  6  7  8
      -0.000000830328  1  2  7  6  7  9
       0.000000000000  1  2  7  6  7 10
       0.000000000000  1  2  7  6  8  9
       0.000001993922  1  2  7  6  8 10
      -0.000001274862  1  2  7  6  9 10
       0.000000000000  1  2  7  7  8  9
       0.000000000000  1  2  7  7  8 10
       0.000000000000  1  2  7  7  9 10
       0.000000000000  1  2  7  8  9 10
       0.000000000000  1  2  8  1  2  3
       0.000000000000  1  2  8  1  2  4
      -0.024245884891  1  2  8  1  2  5
      -0.006451041527  1  2  8  1  2  6
       0.000000000000  1  2  8  1  2  7
       0.000915049685  1  2  8  1  2  8
       0.002854314570  1  2  8  1  2  9
       0.000000000000  1  2  8  1  2 10
       0.000000000000  1  2  8  1  3  4
       0.000972219621  1  2  8  1  3  5
       0.000258680641  1  2  8  1  3  6
       0.000000000000  1  2  8  1  3  7
      -0.000553594212  1  2  8  1  3  8
      -0.001726577162  1  2  8  1  3  9
       0.000000000000  1  2  8  1  3 10
       0.000038909101  1  2  8  1  4  5
       0.000010336582  1  2  8  1  4  6
       0.000000000000  1  2  8  1  4  7
       0.000064409624  1  2  8  1  4  8
       0.000200871606  1  2  8  1  4  9
       0.000000000000  1  2  8  1  4 10
       0.000000000000  1  2  8  1  5  6
       0.000030765442  1  2  8  1  5  7
       0.000000000000  1  2  8  1  5  8
       0.000000000000  1  2  8  1  5  9
      -0.000204191365  1  2  8  1  5 10
       0.000008179847  1  2  8  1  6  7
       0.000000000000  1  2  8  1  6  8
       0.000000000000  1  2  8  1  6  9
      -0.000054318554  1  2  8  1  6 10
      -0.000007747471  1  2  8  1  7  8
      -0.000024307523  1  2  8  1  7  9
       0.000000000000  1  2  8  1  7 10
       0.000000000000  1  2  8  1  8  9
       0.000013393029  1  2  8  1  8 10
       0.000041790634  1  2  8  1  9 10
       0.000000000000  1  2  8  2  3  4
      -0.001720918309  1  2  8  2  3  5
      -0.000457881254  1  2  8  2  3  6
       0.000000000000  1  2  8  2  3  7
      -0.000504832480  1  2  8  2  3  8
      -0.001574527228  1  2  8  2  3  9
       0.000000000000  1  2  8  2  3 10
       0.001194064270  1  2  8  2  4  5
       0.000317717168  1  2  8  2  4  6
       0.000000000000  1  2  8  2  4  7
       0.000316405656  1  2  8  2  4  8
       0.000986770554  1  2  8  2  4  9
       0.000000000000  1  2  8  2  4 10
       0.000000000000  1  2  8  2  5  6
      -0.000389967790  1  2  8  2  5  7
       0.000000000000  1  2  8  2  5  8
       0.000000000000  1  2  8  2  5  9
      -0.000505899411  1  2  8  2  5 10
      -0.000103785296  1  2  8  2  6  7
       0.000000000000  1  2  8  2  6  8
       0.000000000000  1  2  8  2  6  9
      -0.000134601433  1  2  8  2  6 10
       0.000061039416  1  2  8  2  7  8
       0.000190430196  1  2  8  2  7  9
       0.000000000000  1  2  8  2  7 10
       0.000000000000  1  2  8  2  8  9
      -0.000071290009  1  2  8  2  8 10
      -0.000222353965  1  2  8  2  9 10
      -0.000001919492  1  2  8  3  4  5
      -0.000000525027  1  2  8  3  4  6
       0.000000000000  1  2  8  3  4  7
      -0.000000885858  1  2  8  3  4  8
      -0.000002762189  1  2  8  3  4  9
       0.000000000000  1  2  8  3  4 10
       0.000000000000  1  2  8  3  5  6
       0.000002820689  1  2  8  3  5  7
       0.000000000000  1  2  8  3  5  8
       0.000000000000  1  2  8  3  5  9
       0.000001264845  1  2  8  3  5 10
       0.000000735213  1  2  8  3  6  7
       0.000000000000  1  2  8  3  6  8
       0.000000000000  1  2  8  3  6  9
       0.000000321396  1  2  8  3  6 10
      -0.000000111944  1  2  8  3  7  8
      -0.000000343716  1  2  8  3  7  9
       0.000000000000  1  2  8  3  7 10
       0.000000000000  1  2  8  3  8  9
      -0.000001026685  1  2  8  3  8 10
      -0.000003158943  1  2  8  3  9 10
       0.000000000000  1  2  8  4  5  6
      -0.000002461469  1  2  8  4  5  7
       0.000000000000  1  2  8  4  5  8
       0.000000000000  1  2  8  4  5  9
       0.000002571233  1  2  8  4  5 10
      -0.000000653562  1  2  8  4  6  7
       0.000000000000  1  2  8  4  6  8
       0.000000000000  1  2  8  4  6  9
       0.000000678449  1  2  8  4  6 10
      -0.000000045809  1  2  8  4  7  8
      -0.000000122008  1  2  8  4  7  9
       0.000000000000  1  2  8  4  7 10
       0.000000000000  1  2  8  4  8  9
       0.000000000000  1  2  8  4  8 10
       0.000000000000  1  2  8  4  9 10
       0.000000000000  1  2  8  5  6  7
      -0.000000683458  1  2  8  5  6  8
       0.000000215179  1  2  8  5  6  9
       0.000000000000  1  2  8  5  6 10
       0.000000000000  1  2  8  5  7  8
       0.000000000000  1  2  8  5  7  9
       0.000000682665  1  2  8  5  7 10
      -0.000000888557  1  2  8  5  8  9
       0.000000000000  1  2  8  5  8 10
       0.000000000000  1  2  8  5  9 10
       0.000000000000  1  2  8  6  7  8
       0.000000000000  1  2  8  6  7  9
       0.000000181410  1  2  8  6  7 10
       0.000003359042  1  2  8  6  8  9
       0.000000000000  1  2  8  6  8 10
       0.000000000000  1  2  8  6  9 10
       0.000000000000  1  2  8  7  8  9
       0.000001609997  1  2  8  7  8 10
       0.000005028341  1  2  8  7  9 10
       0.000000000000  1  2  8  8  9 10
       0.000000000000  1  2  9  1  2  3
       0.000000000000  1  2  9  1  2  4
       0.006451041527  1  2  9  1  2  5
      -0.024245884891  1  2  9  1  2  6
       0.000000000000  1  2  9  1  2  7
      -0.002854314570  1  2  9  1  2  8
       0.000915049685  1  2  9  1  2  9
       0.000000000000  1  2  9  1  2 10
       0.000000000000  1  2  9  1  3  4
      -0.000258680641  1  2  9  1  3  5
       0.000972219621  1  2  9  1  3  6
       0.000000000000  1  2  9  1  3  7
       0.001726577162  1  2  9  1  3  8
      -0.000553594212  1  2  9  1  3  9
       0.000000000000  1  2  9  1  3 10
      -0.000010336582  1  2  9  1  4  5
       0.000038909101  1  2  9  1  4  6
       0.000000000000  1  2  9  1  4  7
      -0.000200871606  1  2  9  1  4  8
       0.000064409624  1  2  9  1  4  9
       0.000000000000  1  2  9  1  4 10
       0.000000000000  1  2  9  1  5  6
      -0.000008179847  1  2  9  1  5  7
       0.000000000000  1  2  9  1  5  8
       0.000000000000  1  2  9  1  5  9
       0.000054318554  1  2  9  1  5 10
       0.000030765442  1  2  9  1  6  7
       0.000000000000  1  2  9  1  6  8
       0.000000000000  1  2  9  1  6  9
      -0.000204191365  1  2  9  1  6 10
       0.000024307523  1  2  9  1  7  8
      -0.000007747471  1  2  9  1  7  9
       0.000000000000  1  2  9  1  7 10
       0.000000000000  1  2  9  1  8  9
      -0.000041790634  1  2  9  1  8 10
       0.000013393029  1  2  9  1  9 10
       0.000000000000  1  2  9  2  3  4
       0.000457881254  1  2  9  2  3  5
      -0.001720918309  1  2  9  2  3  6
       0.000000000000  1  2  9  2  3  7
       0.001574527228  1  2  9  2  3  8
      -0.000504832480  1  2  9  2  3  9
       0.000000000000  1  2  9  2  3 10
      -0.000317717168  1  2  9  2  4  5
       0.001194064270  1  2  9  2  4  6
       0.000000000000  1  2  9  2  4  7
      -0.000986770554  1  2  9  2  4  8
       0.000316405656  1  2  9  2  4  9
       0.000000000000  1  2  9  2  4 10
       0.000000000000  1  2  9  2  5  6
       0.000103785296  1  2  9  2  5  7
       0.000000000000  1  2  9  2  5  8
       0.000000000000  1  2  9  2  5  9
       0.000134601433  1  2  9  2  5 10
      -0.000389967790  1  2  9  2  6  7
       0.000000000000  1  2  9  2  6  8
       0.000000000000  1  2  9  2  6  9
      -0.000505899411  1  2  9  2  6 10
      -0.000190430196  1  2  9  2  7  8
       0.000061039416  1  2  9  2  7  9
       0.000000000000  1  2  9  2  7 10
       0.000000000000  1  2  9  2  8  9
       0.000222353965  1  2  9  2  8 10
      -0.000071290009  1  2  9  2  9 10
       0.000000525027  1  2  9  3  4  5
      -0.000001919492  1  2  9  3  4  6
       0.000000000000  1  2  9  3  4  7
       0.000002762189  1  2  9  3  4  8
      -0.000000885858  1  2  9  3  4  9
       0.000000000000  1  2  9  3  4 10
       0.000000000000  1  2  9  3  5  6
      -0.000000735213  1  2  9  3  5  7
       0.000000000000  1  2  9  3  5  8
       0.000000000000  1  2  9  3  5  9
      -0.000000321396  1  2  9  3  5 10
       0.000002820689  1  2  9  3  6  7
       0.000000000000  1  2  9  3  6  8
       0.000000000000  1  2  9  3  6  9
       0.000001264845  1  2  9  3  6 10
       0.000000343716  1  2  9  3  7  8
      -0.000000111944  1  2  9  3  7  9
       0.000000000000  1  2  9  3  7 10
       0.000000000000  1  2  9  3  8  9
       0.000003158943  1  2  9  3  8 10
      -0.000001026685  1  2  9  3  9 10
       0.000000000000  1  2  9  4  5  6
       0.000000653562  1  2  9  4  5  7
       0.000000000000  1  2  9  4  5  8
       0.000000000000  1  2  9  4  5  9
      -0.000000678449  1  2  9  4  5 10
      -0.000002461469  1  2  9  4  6  7
       0.000000000000  1  2  9  4  6  8
       0.000000000000  1  2  9  4  6  9
       0.000002571233  1  2  9  4  6 10
       0.000000122008  1  2  9  4  7  8
      -0.000000045809  1  2  9  4  7  9
       0.000000000000  1  2  9  4  7 10
       0.000000000000  1  2  9  4  8  9
       0.000000000000  1  2  9  4  8 10
       0.000000000000  1  2  9  4  9 10
       0.000000000000  1  2  9  5  6  7
      -0.000000215179  1  2  9  5  6  8
      -0.000000683458  1  2  9  5  6  9
       0.000000000000  1  2  9  5  6 10
       0.000000000000  1  2  9  5  7  8
       0.000000000000  1  2  9  5  7  9
      -0.000000181410  1  2  9  5  7 10
      -0.000003359042  1  2  9  5  8  9
       0.000000000000  1  2  9  5  8 10
       0.000000000000  1  2  9  5  9 10
       0.000000000000  1  2  9  6  7  8
       0.000000000000  1  2  9  6  7  9
       0.000000682665  1  2  9  6  7 10
      -0.000000888557  1  2  9  6  8  9
       0.000000000000  1  2  9  6  8 10
       0.000000000000  1  2  9  6  9 10
       0.000000000000  1  2  9  7  8  9
      -0.000005028341  1  2  9  7  8 10
       0.000001609997  1  2  9  7  9 10
       0.000000000000  1  2  9  8  9 10
       0.017045062935  1  2 10  1  2  3
      -0.054768447580  1  2 10  1  2  4
       0.000000000000  1  2 10  1  2  5
       0.000000000000  1  2 10  1  2  6
      -0.016692379042  1  2 10  1  2  7
       0.000000000000  1  2 10  1  2  8
       0.000000000000  1  2 10  1  2  9
      -0.023973109027  1  2 10  1  2 10
       0.001104711340  1  2 10  1  3  4
       0.000000000000  1  2 10  1  3  5
       0.000000000000  1  2 10  1  3  6
       0.001545843173  1  2 10  1  3  7
       0.000000000000  1  2 10  1  3  8
       0.000000000000  1  2 10  1  3  9
      -0.000835802477  1  2 10  1  3 10
       0.000000000000  1  2 10  1  4  5
       0.000000000000  1  2 10  1  4  6
      -0.000107415601  1  2 10  1  4  7
       0.000000000000  1  2 10  1  4  8
       0.000000000000  1  2 10  1  4  9
       0.000099956789  1  2 10  1  4 10
       0.000000000000  1  2 10  1  5  6
       0.000000000000  1  2 10  1  5  7
       0.000099531848  1  2 10  1  5  8
       0.000155154835  1  2 10  1  5  9
       0.000000000000  1  2 10  1  5 10
       0.000000000000  1  2 10  1  6  7
      -0.000155154835  1  2 10  1  6  8
       0.000099531848  1  2 10  1  6  9
       0.000000000000  1  2 10  1  6 10
       0.000000000000  1  2 10  1  7  8
       0.000000000000  1  2 10  1  7  9
      -0.000088935458  1  2 10  1  7 10
       0.000000000000  1  2 10  1  8  9
       0.000000000000  1  2 10  1  8 10
       0.000000000000  1  2 10  1  9 10
       0.001899904156  1  2 10  2  3  4
       0.000000000000  1  2 10  2  3  5
       0.000000000000  1  2 10  2  3  6
      -0.000709095723  1  2 10  2  3  7
       0.000000000000  1  2 10  2  3  8
       0.000000000000  1  2 10  2  3  9
      -0.000647079539  1  2 10  2  3 10
       0.000000000000  1  2 10  2  4  5
       0.000000000000  1  2 10  2  4  6
       0.000733556578  1  2 10  2  4  7
       0.000000000000  1  2 10  2  4  8
       0.000000000000  1  2 10  2  4  9
       0.000640147270  1  2 10  2  4 10
       0.000000000000  1  2 10  2  5  6
       0.000000000000  1  2 10  2  5  7
       0.000082102792  1  2 10  2  5  8
       0.000127969964  1  2 10  2  5  9
       0.000000000000  1  2 10  2  5 10
       0.000000000000  1  2 10  2  6  7
      -0.000127969964  1  2 10  2  6  8
       0.000082102792  1  2 10  2  6  9
       0.000000000000  1  2 10  2  6 10
       0.000000000000  1  2 10  2  7  8
       0.000000000000  1  2 10  2  7  9
      -0.000153304789  1  2 10  2  7 10
       0.000000000000  1  2 10  2  8  9
       0.000000000000  1  2 10  2  8 10
       0.000000000000  1  2 10  2  9 10
       0.000000000000  1  2 10  3  4  5
       0.000000000000  1  2 10  3  4  6
      -0.000003281658  1  2 10  3  4  7
       0.000000000000  1  2 10  3  4  8
       0.000000000000  1  2 10  3  4  9
      -0.000000880943  1  2 10  3  4 10
       0.000000000000  1  2 10  3  5  6
       0.000000000000  1  2 10  3  5  7
       0.000000282797  1  2 10  3  5  8
       0.000000443415  1  2 10  3  5  9
       0.000000000000  1  2 10  3  5 10
       0.000000000000  1  2 10  3  6  7
      -0.000000443415  1  2 10  3  6  8
       0.000000282797  1  2 10  3  6  9
       0.000000000000  1  2 10  3  6 10
       0.000000000000  1  2 10  3  7  8
       0.000000000000  1  2 10  3  7  9
       0.000001605097  1  2 10  3  7 10
       0.000000000000  1  2 10  3  8  9
       0.000000000000  1  2 10  3  8 10
       0.000000000000  1  2 10  3  9 10
       0.000000000000  1  2 10  4  5  6
       0.000000000000  1  2 10  4  5  7
       0.000003454488  1  2 10  4  5  8
       0.000005418249  1  2 10  4  5  9
       0.000000000000  1  2 10  4  5 10
       0.000000000000  1  2 10  4  6  7
      -0.000005418249  1  2 10  4  6  8
       0.000003454488  1  2 10  4  6  9
       0.000000000000  1  2 10  4  6 10
       0.000000000000  1  2 10  4  7  8
       0.000000000000  1  2 10  4  7  9
       0.000015194893  1  2 10  4  7 10
       0.000000000000  1  2 10  4  8  9
       0.000000000000  1  2 10  4  8 10
       0.000000000000  1  2 10  4  9 10
       0.000000000000  1  2 10  5  6  7
       0.000000000000  1  2 10  5  6  8
       0.000000000000  1  2 10  5  6  9
       0.000000000000  1  2 10  5  6 10
      -0.000000939377  1  2 10  5  7  8
      -0.000001422101  1  2 10  5  7  9
       0.000000000000  1  2 10  5  7 10
       0.000000000000  1  2 10  5  8  9
       0.000000931710  1  2 10  5  8 10
       0.000001463836  1  2 10  5  9 10
       0.000001422101  1  2 10  6  7  8
      -0.000000939377  1  2 10  6  7  9
       0.000000000000  1  2 10  6  7 10
       0.000000000000  1  2 10  6  8  9
      -0.000001463836  1  2 10  6  8 10
       0.000000931710  1  2 10  6  9 10
       0.000000000000  1  2 10  7  8  9
       0.000000000000  1  2 10  7  8 10
       0.000000000000  1  2 10  7  9 10
       0.000000000000  1  2 10  8  9 10
      -0.000321232451  1  3  4  1  2  3
      -0.000694326474  1  3  4  1  2  4
       0.000000000000  1  3  4  1  2  5
       0.000000000000  1  3  4  1  2  6
      -0.000477218756  1  3  4  1  2  7
       0.000000000000  1  3  4  1  2  8
       0.000000000000  1  3  4  1  2  9
      -0.001104689075  1  3  4  1  2 10
      -0.000001624059  1  3  4  1  3  4
       0.000000000000  1  3  4  1  3  5
       0.000000000000  1  3  4  1  3  6
      -0.000013763089  1  3  4  1  3  7
       0.000000000000  1  3  4  1  3  8
       0.000000000000  1  3  4  1  3  9
       0.000018284240  1  3  4  1  3 10
       0.000000000000  1  3  4  1  4  5
       0.000000000000  1  3  4  1  4  6
       0.000006742081  1  3  4  1  4  7
       0.000000000000  1  3  4  1  4  8
       0.000000000000  1  3  4  1  4  9
      -0.000005731640  1  3  4  1  4 10
       0.000000000000  1  3  4  1  5  6
       0.000000000000  1  3  4  1  5  7
       0.000001016391  1  3  4  1  5  8
       0.000001544661  1  3  4  1  5  9
       0.000000000000  1  3  4  1  5 10
       0.000000000000  1  3  4  1  6  7
      -0.000001544661  1  3  4  1  6  8
       0.000001016391  1  3  4  1  6  9
       0.000000000000  1  3  4  1  6 10
       0.000000000000  1  3  4  1  7  8
       0.000000000000  1  3  4  1  7  9
      -0.000003781695  1  3  4  1  7 10
       0.000000000000  1  3  4  1  8  9
       0.000000000000  1  3  4  1  8 10
       0.000000000000  1  3  4  1  9 10
       0.001749606357  1  3  4  2  3  4
       0.000000000000  1  3  4  2  3  5
       0.000000000000  1  3  4  2  3  6
      -0.000057273448  1  3  4  2  3  7
       0.000000000000  1  3  4  2  3  8
       0.000000000000  1  3  4  2  3  9
       0.001106210182  1  3  4  2  3 10
       0.000000000000  1  3  4  2  4  5
       0.000000000000  1  3  4  2  4  6
       0.000130976804  1  3  4  2  4  7
       0.000000000000  1  3  4  2  4  8
       0.000000000000  1  3  4  2  4  9
      -0.000104036137  1  3  4  2  4 10
       0.000000000000  1  3  4  2  5  6
       0.000000000000  1  3  4  2  5  7
      -0.000011209432  1  3  4  2  5  8
      -0.000017475308  1  3  4  2  5  9
       0.000000000000  1  3  4  2  5 10
       0.000000000000  1  3  4  2  6  7
       0.000017475308  1  3  4  2  6  8
      -0.000011209432  1  3  4  2  6  9
       0.000000000000  1  3  4  2  6 10
       0.000000000000  1  3  4  2  7  8
       0.000000000000  1  3  4  2  7  9
      -0.000047772263  1  3  4  2  7 10
       0.000000000000  1  3  4  2  8  9
       0.000000000000  1  3  4  2  8 10
       0.000000000000  1  3  4  2  9 10
       0.000000000000  1  3  4  3  4  5
       0.000000000000  1  3  4  3  4  6
      -0.000001298227  1  3  4  3  4  7
       0.000000000000  1  3  4  3  4  8
       0.000000000000  1  3  4  3  4  9
       0.000000864297  1  3  4  3  4 10
       0.000000000000  1  3  4  3  5  6
       0.000000000000  1  3  4  3  5  7
      -0.000000933078  1  3  4  3  5  8
      -0.000001454534  1  3  4  3  5  9
       0.000000000000  1  3  4  3  5 10
       0.000000000000  1  3  4  3  6  7
       0.000001454534  1  3  4  3  6  8
      -0.000000933078  1  3  4  3  6  9
       0.000000000000  1  3  4  3  6 10
       0.000000000000  1  3  4  3  7  8
       0.000000000000  1  3  4  3  7  9
       0.000000792886  1  3  4  3  7 10
       0.000000000000  1  3  4  3  8  9
       0.000000000000  1  3  4  3  8 10
       0.000000000000  1  3  4  3  9 10
       0.000000000000  1  3  4  4  5  6
       0.000000000000  1  3  4  4  5  7
       0.000000357978  1  3  4  4  5  8
       0.000000564010  1  3  4  4  5  9
       0.000000000000  1  3  4  4  5 10
       0.000000000000  1  3  4  4  6  7
      -0.000000564010  1  3  4  4  6  8
       0.000000357978  1  3  4  4  6  9
       0.000000000000  1  3  4  4  6 10
       0.000000000000  1  3  4  4  7  8
       0.000000000000  1  3  4  4  7  9
       0.000002332571  1  3  4  4  7 10
       0.000000000000  1  3  4  4  8  9
       0.000000000000  1  3  4  4  8 10
       0.000000000000  1  3  4  4  9 10
       0.000000000000  1  3  4  5  6  7
       0.000000000000  1  3  4  5  6  8
       0.000000000000  1  3  4  5  6  9
       0.000000000000  1  3  4  5  6 10
       0.000000000000  1  3  4  5  7  8
       0.000000000000  1  3  4  5  7  9
       0.000000000000  1  3  4  5  7 10
       0.000000000000  1  3  4  5  8  9
      -0.000000027828  1  3  4  5  8 10
      -0.000000042043  1  3  4  5  9 10
       0.000000000000  1  3  4  6  7  8
       0.000000000000  1  3  4  6  7  9
       0.000000000000  1  3  4  6  7 10
       0.000000000000  1  3  4  6  8  9
       0.000000042043  1  3  4  6  8 10
      -0.000000027828  1  3  4  6  9 10
       0.000000000000  1  3  4  7  8  9
       0.000000000000  1  3  4  7  8 10
       0.000000000000  1  3  4  7  9 10
       0.000000000000  1  3  4  8  9 10
       0.000000000000  1  3  5  1  2  3
       0.000000000000  1  3  5  1  2  4
       0.001702307202  1  3  5  1  2  5
       0.001022896177  1  3  5  1  2  6
       0.000000000000  1  3  5  1  2  7
       0.000029419977  1  3  5  1  2  8
       0.001005640909  1  3  5  1  2  9
       0.000000000000  1  3  5  1  2 10
       0.000000000000  1  3  5  1  3  4
       0.000013260741  1  3  5  1  3  5
       0.000007978440  1  3  5  1  3  6
       0.000000000000  1  3  5  1  3  7
      -0.000000714116  1  3  5  1  3  8
      -0.000024525597  1  3  5  1  3  9
       0.000000000000  1  3  5  1  3 10
      -0.000006236160  1  3  5  1  4  5
      -0.000003743022  1  3  5  1  4  6
       0.000000000000  1  3  5  1  4  7
       0.000000355550  1  3  5  1  4  8
       0.000012143013  1  3  5  1  4  9
       0.000000000000  1  3  5  1  4 10
       0.000000000000  1  3  5  1  5  6
       0.000002047304  1  3  5  1  5  7
       0.000000000000  1  3  5  1  5  8
       0.000000000000  1  3  5  1  5  9
      -0.000002314742  1  3  5  1  5 10
       0.000001239203  1  3  5  1  6  7
       0.000000000000  1  3  5  1  6  8
       0.000000000000  1  3  5  1  6  9
      -0.000001383903  1  3  5  1  6 10
       0.000000036913  1  3  5  1  7  8
       0.000001010529  1  3  5  1  7  9
       0.000000000000  1  3  5  1  7 10
       0.000000000000  1  3  5  1  8  9
      -0.000000038005  1  3  5  1  8 10
      -0.000001145522  1  3  5  1  9 10
       0.000000000000  1  3  5  2  3  4
       0.000289465931  1  3  5  2  3  5
       0.000173929470  1  3  5  2  3  6
       0.000000000000  1  3  5  2  3  7
       0.000019115820  1  3  5  2  3  8
       0.000654498373  1  3  5  2  3  9
       0.000000000000  1  3  5  2  3 10
      -0.000235910991  1  3  5  2  4  5
      -0.000141747987  1  3  5  2  4  6
       0.000000000000  1  3  5  2  4  7
      -0.000003684375  1  3  5  2  4  8
      -0.000125208752  1  3  5  2  4  9
       0.000000000000  1  3  5  2  4 10
       0.000000000000  1  3  5  2  5  6
       0.000080964249  1  3  5  2  5  7
       0.000000000000  1  3  5  2  5  8
       0.000000000000  1  3  5  2  5  9
       0.000183367569  1  3  5  2  5 10
       0.000048662886  1  3  5  2  6  7
       0.000000000000  1  3  5  2  6  8
       0.000000000000  1  3  5  2  6  9
       0.000110185276  1  3  5  2  6 10
      -0.000001261560  1  3  5  2  7  8
      -0.000042279652  1  3  5  2  7  9
       0.000000000000  1  3  5  2  7 10
       0.000000000000  1  3  5  2  8  9
      -0.000001182144  1  3  5  2  8 10
      -0.000040625823  1  3  5  2  9 10
      -0.000001431985  1  3  5  3  4  5
      -0.000000867420  1  3  5  3  4  6
       0.000000000000  1  3  5  3  4  7
       0.000000046762  1  3  5  3  4  8
       0.000001323254  1  3  5  3  4  9
       0.000000000000  1  3  5  3  4 10
       0.000000000000  1  3  5  3  5  6
       0.000001158091  1  3  5  3  5  7
       0.000000000000  1  3  5  3  5  8
       0.000000000000  1  3  5  3  5  9
       0.000001670667  1  3  5  3  5 10
       0.000000690714  1  3  5  3  6  7
       0.000000000000  1  3  5  3  6  8
       0.000000000000  1  3  5  3  6  9
       0.000000995941  1  3  5  3  6 10
       0.000000034652  1  3  5  3  7  8
       0.000000968636  1  3  5  3  7  9
       0.000000000000  1  3  5  3  7 10
       0.000000000000  1  3  5  3  8  9
      -0.000000100885  1  3  5  3  8 10
      -0.000002576209  1  3  5  3  9 10
       0.000000000000  1  3  5  4  5  6
       0.000000063409  1  3  5  4  5  7
       0.000000000000  1  3  5  4  5  8
       0.000000000000  1  3  5  4  5  9
      -0.000000458459  1  3  5  4  5 10
       0.000000034997  1  3  5  4  6  7
       0.000000000000  1  3  5  4  6  8
       0.000000000000  1  3  5  4  6  9
      -0.000000273410  1  3  5  4  6 10
       0.000000000000  1  3  5  4  7  8
       0.000000224904  1  3  5  4  7  9
       0.000000000000  1  3  5  4  7 10
       0.000000000000  1  3  5  4  8  9
       0.000000000000  1  3  5  4  8 10
       0.000000302684  1  3  5  4  9 10
       0.000000000000  1  3  5  5  6  7
       0.000000000000  1  3  5  5  6  8
       0.000000000000  1  3  5  5  6  9
       0.000000000000  1  3  5  5  6 10
       0.000000000000  1  3  5  5  7  8
       0.000000000000  1  3  5  5  7  9
       0.000000605970  1  3  5  5  7 10
       0.000000094627  1  3  5  5  8  9
       0.000000000000  1  3  5  5  8 10
       0.000000000000  1  3  5  5  9 10
       0.000000000000  1  3  5  6  7  8
       0.000000000000  1  3  5  6  7  9
       0.000000360424  1  3  5  6  7 10
      -0.000000152630  1  3  5  6  8  9
       0.000000000000  1  3  5  6  8 10
       0.000000000000  1  3  5  6  9 10
       0.000000000000  1  3  5  7  8  9
       0.000000000000  1  3  5  7  8 10
      -0.000000248554  1  3  5  7  9 10
       0.000000000000  1  3  5  8  9 10
       0.000000000000  1  3  6  1  2  3
       0.000000000000  1  3  6  1  2  4
      -0.001022896177  1  3  6  1  2  5
       0.001702307202  1  3  6  1  2  6
       0.000000000000  1  3  6  1  2  7
      -0.001005640909  1  3  6  1  2  8
       0.000029419977  1  3  6  1  2  9
       0.000000000000  1  3  6  1  2 10
       0.000000000000  1  3  6  1  3  4
      -0.000007978440  1  3  6  1  3  5
       0.000013260741  1  3  6  1  3  6
       0.000000000000  1  3  6  1  3  7
       0.000024525597  1  3  6  1  3  8
      -0.000000714116  1  3  6  1  3  9
       0.000000000000  1  3  6  1  3 10
       0.000003743022  1  3  6  1  4  5
      -0.000006236160  1  3  6  1  4  6
       0.000000000000  1  3  6  1  4  7
      -0.000012143013  1  3  6  1  4  8
       0.000000355550  1  3  6  1  4  9
       0.000000000000  1  3  6  1  4 10
       0.000000000000  1  3  6  1  5  6
      -0.000001239203  1  3  6  1  5  7
       0.000000000000  1  3  6  1  5  8
       0.000000000000  1  3  6  1  5  9
       0.000001383903  1  3  6  1  5 10
       0.000002047304  1  3  6  1  6  7
       0.000000000000  1  3  6  1  6  8
       0.000000000000  1  3  6  1  6  9
      -0.000002314742  1  3  6  1  6 10
      -0.000001010529  1  3  6  1  7  8
       0.000000036913  1  3  6  1  7  9
       0.000000000000  1  3  6  1  7 10
       0.000000000000  1  3  6  1  8  9
       0.000001145522  1  3  6  1  8 10
      -0.000000038005  1  3  6  1  9 10
       0.000000000000  1  3  6  2  3  4
      -0.000173929470  1  3  6  2  3  5
       0.000289465931  1  3  6  2  3  6
       0.000000000000  1  3  6  2  3  7
      -0.000654498373  1  3  6  2  3  8
       0.000019115820  1  3  6  2  3  9
       0.000000000000  1  3  6  2  3 10
       0.000141747987  1  3  6  2  4  5
      -0.000235910991  1  3  6  2  4  6
       0.000000000000  1  3  6  2  4  7
       0.000125208752  1  3  6  2  4  8
      -0.000003684375  1  3  6  2  4  9
       0.000000000000  1  3  6  2  4 10
       0.000000000000  1  3  6  2  5  6
      -0.000048662886  1  3  6  2  5  7
       0.000000000000  1  3  6  2  5  8
       0.000000000000  1  3  6  2  5  9
      -0.000110185276  1  3  6  2  5 10
       0.000080964249  1  3  6  2  6  7
       0.000000000000  1  3  6  2  6  8
       0.000000000000  1  3  6  2  6  9
       0.000183367569  1  3  6  2  6 10
       0.000042279652  1  3  6  2  7  8
      -0.000001261560  1  3  6  2  7  9
       0.000000000000  1  3  6  2  7 10
       0.000000000000  1  3  6  2  8  9
       0.000040625823  1  3  6  2  8 10
      -0.000001182144  1  3  6  2  9 10
       0.000000867420  1  3  6  3  4  5
      -0.000001431985  1  3  6  3  4  6
       0.000000000000  1  3  6  3  4  7
      -0.000001323254  1  3  6  3  4  8
       0.000000046762  1  3  6  3  4  9
       0.000000000000  1  3  6  3  4 10
       0.000000000000  1  3  6  3  5  6
      -0.000000690714  1  3  6  3  5  7
       0.000000000000  1  3  6  3  5  8
       0.000000000000  1  3  6  3  5  9
      -0.000000995941  1  3  6  3  5 10
       0.000001158091  1  3  6  3  6  7
       0.000000000000  1  3  6  3  6  8
       0.000000000000  1  3  6  3  6  9
       0.000001670667  1  3  6  3  6 10
      -0.000000968636  1  3  6  3  7  8
       0.000000034652  1  3  6  3  7  9
       0.000000000000  1  3  6  3  7 10
       0.000000000000  1  3  6  3  8  9
       0.000002576209  1  3  6  3  8 10
      -0.000000100885  1  3  6  3  9 10
       0.000000000000  1  3  6  4  5  6
      -0.000000034997  1  3  6  4  5  7
       0.000000000000  1  3  6  4  5  8
       0.000000000000  1  3  6  4  5  9
       0.000000273410  1  3  6  4  5 10
       0.000000063409  1  3  6  4  6  7
       0.000000000000  1  3  6  4  6  8
       0.000000000000  1  3  6  4  6  9
      -0.000000458459  1  3  6  4  6 10
      -0.000000224904  1  3  6  4  7  8
       0.000000000000  1  3  6  4  7  9
       0.000000000000  1  3  6  4  7 10
       0.000000000000  1  3  6  4  8  9
      -0.000000302684  1  3  6  4  8 10
       0.000000000000  1  3  6  4  9 10
       0.000000000000  1  3  6  5  6  7
       0.000000000000  1  3  6  5  6  8
       0.000000000000  1  3  6  5  6  9
       0.000000000000  1  3  6  5  6 10
       0.000000000000  1  3  6  5  7  8
       0.000000000000  1  3  6  5  7  9
      -0.000000360424  1  3  6  5  7 10
       0.000000152630  1  3  6  5  8  9
       0.000000000000  1  3  6  5  8 10
       0.000000000000  1  3  6  5  9 10
       0.000000000000  1  3  6  6  7  8
       0.000000000000  1  3  6  6  7  9
       0.000000605970  1  3  6  6  7 10
       0.000000094627  1  3  6  6  8  9
       0.000000000000  1  3  6  6  8 10
       0.000000000000  1  3  6  6  9 10
       0.000000000000  1  3  6  7  8  9
       0.000000248554  1  3  6  7  8 10
       0.000000000000  1  3  6  7  9 10
       0.000000000000  1  3  6  8  9 10
       0.000348526671  1  3  7  1  2  3
      -0.001417507000  1  3  7  1  2  4
       0.000000000000  1  3  7  1  2  5
       0.000000000000  1  3  7  1  2  6
       0.002303250122  1  3  7  1  2  7
       0.000000000000  1  3  7  1  2  8
       0.000000000000  1  3  7  1  2  9
       0.001545871850  1  3  7  1  2 10
       0.000013763083  1  3  7  1  3  4
       0.000000000000  1  3  7  1  3  5
       0.000000000000  1  3  7  1  3  6
       0.000066269499  1  3  7  1  3  7
       0.000000000000  1  3  7  1  3  8
       0.000000000000  1  3  7  1  3  9
      -0.000057477962  1  3  7  1  3 10
       0.000000000000  1  3  7  1  4  5
       0.000000000000  1  3  7  1  4  6
      -0.000022055536  1  3  7  1  4  7
       0.000000000000  1  3  7  1  4  8
       0.000000000000  1  3  7  1  4  9
       0.000021445316  1  3  7  1  4 10
       0.000000000000  1  3  7  1  5  6
       0.000000000000  1  3  7  1  5  7
       0.000000708384  1  3  7  1  5  8
       0.000001102665  1  3  7  1  5  9
       0.000000000000  1  3  7  1  5 10
       0.000000000000  1  3  7  1  6  7
      -0.000001102665  1  3  7  1  6  8
       0.000000708384  1  3  7  1  6  9
       0.000000000000  1  3  7  1  6 10
       0.000000000000  1  3  7  1  7  8
       0.000000000000  1  3  7  1  7  9
       0.000003597103  1  3  7  1  7 10
       0.000000000000  1  3  7  1  8  9
       0.000000000000  1  3  7  1  8 10
       0.000000000000  1  3  7  1  9 10
      -0.001344177997  1  3  7  2  3  4
       0.000000000000  1  3  7  2  3  5
       0.000000000000  1  3  7  2  3  6
       0.000560429075  1  3  7  2  3  7
       0.000000000000  1  3  7  2  3  8
       0.000000000000  1  3  7  2  3  9
       0.000570535325  1  3  7  2  3 10
       0.000000000000  1  3  7  2  4  5
       0.000000000000  1  3  7  2  4  6
      -0.000352215562  1  3  7  2  4  7
       0.000000000000  1  3  7  2  4  8
       0.000000000000  1  3  7  2  4  9
      -0.000216253041  1  3  7  2  4 10
       0.000000000000  1  3  7  2  5  6
       0.000000000000  1  3  7  2  5  7
       0.000002319350  1  3  7  2  5  8
       0.000003606160  1  3  7  2  5  9
       0.000000000000  1  3  7  2  5 10
       0.000000000000  1  3  7  2  6  7
      -0.000003606160  1  3  7  2  6  8
       0.000002319350  1  3  7  2  6  9
       0.000000000000  1  3  7  2  6 10
       0.000000000000  1  3  7  2  7  8
       0.000000000000  1  3  7  2  7  9
       0.000067090721  1  3  7  2  7 10
       0.000000000000  1  3  7  2  8  9
       0.000000000000  1  3  7  2  8 10
       0.000000000000  1  3  7  2  9 10
       0.000000000000  1  3  7  3  4  5
       0.000000000000  1  3  7  3  4  6
      -0.000000848811  1  3  7  3  4  7
       0.000000000000  1  3  7  3  4  8
       0.000000000000  1  3  7  3  4  9
       0.000000463973  1  3  7  3  4 10
       0.000000000000  1  3  7  3  5  6
       0.000000000000  1  3  7  3  5  7
       0.000000052199  1  3  7  3  5  8
       0.000000089679  1  3  7  3  5  9
       0.000000000000  1  3  7  3  5 10
       0.000000000000  1  3  7  3  6  7
      -0.000000089679  1  3  7  3  6  8
       0.000000052199  1  3  7  3  6  9
       0.000000000000  1  3  7  3  6 10
       0.000000000000  1  3  7  3  7  8
       0.000000000000  1  3  7  3  7  9
       0.000001701325  1  3  7  3  7 10
       0.000000000000  1  3  7  3  8  9
       0.000000000000  1  3  7  3  8 10
       0.000000000000  1  3  7  3  9 10
       0.000000000000  1  3  7  4  5  6
       0.000000000000  1  3  7  4  5  7
      -0.000000180362  1  3  7  4  5  8
      -0.000000292161  1  3  7  4  5  9
       0.000000000000  1  3  7  4  5 10
       0.000000000000  1  3  7  4  6  7
       0.000000292161  1  3  7  4  6  8
      -0.000000180362  1  3  7  4  6  9
       0.000000000000  1  3  7  4  6 10
       0.000000000000  1  3  7  4  7  8
       0.000000000000  1  3  7  4  7  9
      -0.000001396358  1  3  7  4  7 10
       0.000000000000  1  3  7  4  8  9
       0.000000000000  1  3  7  4  8 10
       0.000000000000  1  3  7  4  9 10
       0.000000000000  1  3  7  5  6  7
       0.000000000000  1  3  7  5  6  8
       0.000000000000  1  3  7  5  6  9
       0.000000000000  1  3  7  5  6 10
      -0.000000092317  1  3  7  5  7  8
      -0.000000147342  1  3  7  5  7  9
       0.000000000000  1  3  7  5  7 10
       0.000000000000  1  3  7  5  8  9
       0.000000137127  1  3  7  5  8 10
       0.000000213733  1  3  7  5  9 10
       0.000000147342  1  3  7  6  7  8
      -0.000000092317  1  3  7  6  7  9
       0.000000000000  1  3  7  6  7 10
       0.000000000000  1  3  7  6  8  9
      -0.000000213733  1  3  7  6  8 10
       0.000000137127  1  3  7  6  9 10
       0.000000000000  1  3  7  7  8  9
       0.000000000000  1  3  7  7  8 10
       0.000000000000  1  3  7  7  9 10
       0.000000000000  1  3  7  8  9 10
       0.000000000000  1  3  8  1  2  3
       0.000000000000  1  3  8  1  2  4
       0.002653165734  1  3  8  1  2  5
       0.000705887992  1  3  8  1  2  6
       0.000000000000  1  3  8  1  2  7
       0.000553575843  1  3  8  1  2  8
       0.001726587363  1  3  8  1  2  9
       0.000000000000  1  3  8  1  2 10
       0.000000000000  1  3  8  1  3  4
       0.000023679030  1  3  8  1  3  5
       0.000006306008  1  3  8  1  3  6
       0.000000000000  1  3  8  1  3  7
      -0.000012643561  1  3  8  1  3  8
      -0.000039448047  1  3  8  1  3  9
       0.000000000000  1  3  8  1  3 10
      -0.000003253074  1  3  8  1  4  5
      -0.000000857583  1  3  8  1  4  6
       0.000000000000  1  3  8  1  4  7
       0.000002534696  1  3  8  1  4  8
       0.000007983987  1  3  8  1  4  9
       0.000000000000  1  3  8  1  4 10
       0.000000000000  1  3  8  1  5  6
       0.000003657713  1  3  8  1  5  7
       0.000000000000  1  3  8  1  5  8
       0.000000000000  1  3  8  1  5  9
      -0.000002060562  1  3  8  1  5 10
       0.000000962380  1  3  8  1  6  7
       0.000000000000  1  3  8  1  6  8
       0.000000000000  1  3  8  1  6  9
      -0.000000531338  1  3  8  1  6 10
       0.000001692129  1  3  8  1  7  8
       0.000005369715  1  3  8  1  7  9
       0.000000000000  1  3  8  1  7 10
       0.000000000000  1  3  8  1  8  9
      -0.000001179597  1  3  8  1  8 10
      -0.000003689485  1  3  8  1  9 10
       0.000000000000  1  3  8  2  3  4
       0.001062825455  1  3  8  2  3  5
       0.000282761530  1  3  8  2  3  6
       0.000000000000  1  3  8  2  3  7
       0.000304348514  1  3  8  2  3  8
       0.000949295026  1  3  8  2  3  9
       0.000000000000  1  3  8  2  3 10
      -0.000262161552  1  3  8  2  4  5
      -0.000069768690  1  3  8  2  4  6
       0.000000000000  1  3  8  2  4  7
      -0.000068694992  1  3  8  2  4  8
      -0.000214249799  1  3  8  2  4  9
       0.000000000000  1  3  8  2  4 10
       0.000000000000  1  3  8  2  5  6
       0.000087428818  1  3  8  2  5  7
       0.000000000000  1  3  8  2  5  8
       0.000000000000  1  3  8  2  5  9
       0.000004086749  1  3  8  2  5 10
       0.000023254363  1  3  8  2  6  7
       0.000000000000  1  3  8  2  6  8
       0.000000000000  1  3  8  2  6  9
       0.000001070440  1  3  8  2  6 10
      -0.000022101832  1  3  8  2  7  8
      -0.000068928234  1  3  8  2  7  9
       0.000000000000  1  3  8  2  7 10
       0.000000000000  1  3  8  2  8  9
      -0.000006904870  1  3  8  2  8 10
      -0.000021507858  1  3  8  2  9 10
       0.000001215021  1  3  8  3  4  5
       0.000000319642  1  3  8  3  4  6
       0.000000000000  1  3  8  3  4  7
      -0.000001085801  1  3  8  3  4  8
      -0.000003357362  1  3  8  3  4  9
       0.000000000000  1  3  8  3  4 10
       0.000000000000  1  3  8  3  5  6
      -0.000000891197  1  3  8  3  5  7
       0.000000000000  1  3  8  3  5  8
       0.000000000000  1  3  8  3  5  9
      -0.000001584020  1  3  8  3  5 10
      -0.000000238681  1  3  8  3  6  7
       0.000000000000  1  3  8  3  6  8
       0.000000000000  1  3  8  3  6  9
      -0.000000410240  1  3  8  3  6 10
      -0.000000288923  1  3  8  3  7  8
      -0.000000923067  1  3  8  3  7  9
       0.000000000000  1  3  8  3  7 10
       0.000000000000  1  3  8  3  8  9
       0.000001566173  1  3  8  3  8 10
       0.000004879313  1  3  8  3  9 10
       0.000000000000  1  3  8  4  5  6
      -0.000000205146  1  3  8  4  5  7
       0.000000000000  1  3  8  4  5  8
       0.000000000000  1  3  8  4  5  9
       0.000000357764  1  3  8  4  5 10
      -0.000000053722  1  3  8  4  6  7
       0.000000000000  1  3  8  4  6  8
       0.000000000000  1  3  8  4  6  9
       0.000000100965  1  3  8  4  6 10
       0.000000091985  1  3  8  4  7  8
       0.000000291789  1  3  8  4  7  9
       0.000000000000  1  3  8  4  7 10
       0.000000000000  1  3  8  4  8  9
      -0.000000211146  1  3  8  4  8 10
      -0.000000652784  1  3  8  4  9 10
       0.000000000000  1  3  8  5  6  7
      -0.000000277346  1  3  8  5  6  8
       0.000000089513  1  3  8  5  6  9
       0.000000000000  1  3  8  5  6 10
       0.000000000000  1  3  8  5  7  8
       0.000000000000  1  3  8  5  7  9
       0.000000688959  1  3  8  5  7 10
       0.000000093336  1  3  8  5  8  9
       0.000000000000  1  3  8  5  8 10
       0.000000000000  1  3  8  5  9 10
       0.000000000000  1  3  8  6  7  8
       0.000000000000  1  3  8  6  7  9
       0.000000180457  1  3  8  6  7 10
      -0.000000342606  1  3  8  6  8  9
       0.000000000000  1  3  8  6  8 10
       0.000000000000  1  3  8  6  9 10
       0.000000000000  1  3  8  7  8  9
      -0.000000321881  1  3  8  7  8 10
      -0.000001028628  1  3  8  7  9 10
       0.000000000000  1  3  8  8  9 10
       0.000000000000  1  3  9  1  2  3
       0.000000000000  1  3  9  1  2  4
      -0.000705887992  1  3  9  1  2  5
       0.002653165734  1  3  9  1  2  6
       0.000000000000  1  3  9  1  2  7
      -0.001726587363  1  3  9  1  2  8
       0.000553575843  1  3  9  1  2  9
       0.000000000000  1  3  9  1  2 10
       0.000000000000  1  3  9  1  3  4
      -0.000006306008  1  3  9  1  3  5
       0.000023679030  1  3  9  1  3  6
       0.000000000000  1  3  9  1  3  7
       0.000039448047  1  3  9  1  3  8
      -0.000012643561  1  3  9  1  3  9
[...]
       0.000000000000  7  8  9  2  3  9
       0.000000000000  7  8  9  2  3 10
       0.000000000000  7  8  9  2  4  5
       0.000000000000  7  8  9  2  4  6
       0.000000000000  7  8  9  2  4  7
       0.000000000000  7  8  9  2  4  8
       0.000000000000  7  8  9  2  4  9
       0.000000000000  7  8  9  2  4 10
       0.000000830525  7  8  9  2  5  6
       0.000000000000  7  8  9  2  5  7
      -0.000000040060  7  8  9  2  5  8
       0.000000026743  7  8  9  2  5  9
       0.000000000000  7  8  9  2  5 10
       0.000000000000  7  8  9  2  6  7
      -0.000000026743  7  8  9  2  6  8
      -0.000000040060  7  8  9  2  6  9
       0.000000000000  7  8  9  2  6 10
       0.000000000000  7  8  9  2  7  8
       0.000000000000  7  8  9  2  7  9
       0.000000000000  7  8  9  2  7 10
      -0.000000536448  7  8  9  2  8  9
       0.000000000000  7  8  9  2  8 10
       0.000000000000  7  8  9  2  9 10
       0.000000000000  7  8  9  3  4  5
       0.000000000000  7  8  9  3  4  6
       0.000000000000  7  8  9  3  4  7
       0.000000000000  7  8  9  3  4  8
       0.000000000000  7  8  9  3  4  9
       0.000000000000  7  8  9  3  4 10
       0.000000089040  7  8  9  3  5  6
       0.000000000000  7  8  9  3  5  7
       0.000000000000  7  8  9  3  5  8
       0.000000000000  7  8  9  3  5  9
       0.000000000000  7  8  9  3  5 10
       0.000000000000  7  8  9  3  6  7
       0.000000000000  7  8  9  3  6  8
       0.000000000000  7  8  9  3  6  9
       0.000000000000  7  8  9  3  6 10
       0.000000000000  7  8  9  3  7  8
       0.000000000000  7  8  9  3  7  9
       0.000000000000  7  8  9  3  7 10
      -0.000000207606  7  8  9  3  8  9
       0.000000000000  7  8  9  3  8 10
       0.000000000000  7  8  9  3  9 10
      -0.000000202447  7  8  9  4  5  6
       0.000000000000  7  8  9  4  5  7
      -0.000000072300  7  8  9  4  5  8
       0.000000063212  7  8  9  4  5  9
       0.000000000000  7  8  9  4  5 10
       0.000000000000  7  8  9  4  6  7
      -0.000000063212  7  8  9  4  6  8
      -0.000000072300  7  8  9  4  6  9
       0.000000000000  7  8  9  4  6 10
       0.000000000000  7  8  9  4  7  8
       0.000000000000  7  8  9  4  7  9
       0.000000000000  7  8  9  4  7 10
       0.000000205431  7  8  9  4  8  9
       0.000000000000  7  8  9  4  8 10
       0.000000000000  7  8  9  4  9 10
       0.000000076158  7  8  9  5  6  7
       0.000000000000  7  8  9  5  6  8
       0.000000000000  7  8  9  5  6  9
       0.000000027104  7  8  9  5  6 10
      -0.000000062344  7  8  9  5  7  8
       0.000000053276  7  8  9  5  7  9
       0.000000000000  7  8  9  5  7 10
       0.000000000000  7  8  9  5  8  9
      -0.000000020774  7  8  9  5  8 10
       0.000000000000  7  8  9  5  9 10
      -0.000000053276  7  8  9  6  7  8
      -0.000000062344  7  8  9  6  7  9
       0.000000000000  7  8  9  6  7 10
       0.000000000000  7  8  9  6  8  9
       0.000000000000  7  8  9  6  8 10
      -0.000000020774  7  8  9  6  9 10
      -0.000000118398  7  8  9  7  8  9
       0.000000000000  7  8  9  7  8 10
       0.000000000000  7  8  9  7  9 10
       0.000000069680  7  8  9  8  9 10
       0.000000000000  7  8 10  1  2  3
       0.000000000000  7  8 10  1  2  4
      -0.000002187246  7  8 10  1  2  5
      -0.000000571296  7  8 10  1  2  6
       0.000000000000  7  8 10  1  2  7
       0.000001582729  7  8 10  1  2  8
       0.000005028367  7  8 10  1  2  9
       0.000000000000  7  8 10  1  2 10
       0.000000000000  7  8 10  1  3  4
      -0.000000244673  7  8 10  1  3  5
      -0.000000083586  7  8 10  1  3  6
       0.000000000000  7  8 10  1  3  7
       0.000000322720  7  8 10  1  3  8
       0.000001028217  7  8 10  1  3  9
       0.000000000000  7  8 10  1  3 10
       0.000000546395  7  8 10  1  4  5
       0.000000142492  7  8 10  1  4  6
       0.000000000000  7  8 10  1  4  7
      -0.000000371229  7  8 10  1  4  8
      -0.000001180541  7  8 10  1  4  9
       0.000000000000  7  8 10  1  4 10
       0.000000000000  7  8 10  1  5  6
      -0.000000408354  7  8 10  1  5  7
       0.000000000000  7  8 10  1  5  8
       0.000000000000  7  8 10  1  5  9
       0.000000878614  7  8 10  1  5 10
      -0.000000110041  7  8 10  1  6  7
       0.000000000000  7  8 10  1  6  8
       0.000000000000  7  8 10  1  6  9
       0.000000223364  7  8 10  1  6 10
       0.000000126997  7  8 10  1  7  8
       0.000000396221  7  8 10  1  7  9
       0.000000000000  7  8 10  1  7 10
       0.000000000000  7  8 10  1  8  9
       0.000000024175  7  8 10  1  8 10
       0.000000081191  7  8 10  1  9 10
       0.000000000000  7  8 10  2  3  4
       0.000000948707  7  8 10  2  3  5
       0.000000255581  7  8 10  2  3  6
       0.000000000000  7  8 10  2  3  7
       0.000000469137  7  8 10  2  3  8
       0.000001488522  7  8 10  2  3  9
       0.000000000000  7  8 10  2  3 10
       0.000000315008  7  8 10  2  4  5
       0.000000086545  7  8 10  2  4  6
       0.000000000000  7  8 10  2  4  7
      -0.000000213336  7  8 10  2  4  8
      -0.000000663350  7  8 10  2  4  9
       0.000000000000  7  8 10  2  4 10
       0.000000000000  7  8 10  2  5  6
       0.000000502043  7  8 10  2  5  7
       0.000000000000  7  8 10  2  5  8
       0.000000000000  7  8 10  2  5  9
       0.000001304538  7  8 10  2  5 10
       0.000000134637  7  8 10  2  6  7
       0.000000000000  7  8 10  2  6  8
       0.000000000000  7  8 10  2  6  9
       0.000000350785  7  8 10  2  6 10
       0.000000273254  7  8 10  2  7  8
       0.000000831854  7  8 10  2  7  9
       0.000000000000  7  8 10  2  7 10
       0.000000000000  7  8 10  2  8  9
      -0.000000218122  7  8 10  2  8 10
      -0.000000673557  7  8 10  2  9 10
      -0.000000125487  7  8 10  3  4  5
      -0.000000042144  7  8 10  3  4  6
       0.000000000000  7  8 10  3  4  7
       0.000000082667  7  8 10  3  4  8
       0.000000258310  7  8 10  3  4  9
       0.000000000000  7  8 10  3  4 10
       0.000000000000  7  8 10  3  5  6
      -0.000000129883  7  8 10  3  5  7
       0.000000000000  7  8 10  3  5  8
       0.000000000000  7  8 10  3  5  9
      -0.000000101966  7  8 10  3  5 10
      -0.000000041745  7  8 10  3  6  7
       0.000000000000  7  8 10  3  6  8
       0.000000000000  7  8 10  3  6  9
      -0.000000035008  7  8 10  3  6 10
       0.000000000000  7  8 10  3  7  8
      -0.000000029827  7  8 10  3  7  9
       0.000000000000  7  8 10  3  7 10
       0.000000000000  7  8 10  3  8  9
      -0.000000154033  7  8 10  3  8 10
      -0.000000479017  7  8 10  3  9 10
       0.000000000000  7  8 10  4  5  6
       0.000000064760  7  8 10  4  5  7
       0.000000000000  7  8 10  4  5  8
       0.000000000000  7  8 10  4  5  9
      -0.000000037113  7  8 10  4  5 10
       0.000000000000  7  8 10  4  6  7
       0.000000000000  7  8 10  4  6  8
       0.000000000000  7  8 10  4  6  9
       0.000000000000  7  8 10  4  6 10
      -0.000000123122  7  8 10  4  7  8
      -0.000000387451  7  8 10  4  7  9
       0.000000000000  7  8 10  4  7 10
       0.000000000000  7  8 10  4  8  9
       0.000000155642  7  8 10  4  8 10
       0.000000488461  7  8 10  4  9 10
       0.000000000000  7  8 10  5  6  7
       0.000000000000  7  8 10  5  6  8
       0.000000000000  7  8 10  5  6  9
       0.000000000000  7  8 10  5  6 10
       0.000000000000  7  8 10  5  7  8
       0.000000000000  7  8 10  5  7  9
       0.000000264736  7  8 10  5  7 10
       0.000000000000  7  8 10  5  8  9
       0.000000000000  7  8 10  5  8 10
       0.000000000000  7  8 10  5  9 10
       0.000000000000  7  8 10  6  7  8
       0.000000000000  7  8 10  6  7  9
       0.000000071684  7  8 10  6  7 10
       0.000000000000  7  8 10  6  8  9
       0.000000000000  7  8 10  6  8 10
       0.000000000000  7  8 10  6  9 10
       0.000000000000  7  8 10  7  8  9
      -0.000000144272  7  8 10  7  8 10
      -0.000000446831  7  8 10  7  9 10
       0.000000000000  7  8 10  8  9 10
       0.000000000000  7  9 10  1  2  3
       0.000000000000  7  9 10  1  2  4
       0.000000571296  7  9 10  1  2  5
      -0.000002187246  7  9 10  1  2  6
       0.000000000000  7  9 10  1  2  7
      -0.000005028367  7  9 10  1  2  8
       0.000001582729  7  9 10  1  2  9
       0.000000000000  7  9 10  1  2 10
       0.000000000000  7  9 10  1  3  4
       0.000000083586  7  9 10  1  3  5
      -0.000000244673  7  9 10  1  3  6
       0.000000000000  7  9 10  1  3  7
      -0.000001028217  7  9 10  1  3  8
       0.000000322720  7  9 10  1  3  9
       0.000000000000  7  9 10  1  3 10
      -0.000000142492  7  9 10  1  4  5
       0.000000546395  7  9 10  1  4  6
       0.000000000000  7  9 10  1  4  7
       0.000001180541  7  9 10  1  4  8
      -0.000000371229  7  9 10  1  4  9
       0.000000000000  7  9 10  1  4 10
       0.000000000000  7  9 10  1  5  6
       0.000000110041  7  9 10  1  5  7
       0.000000000000  7  9 10  1  5  8
       0.000000000000  7  9 10  1  5  9
      -0.000000223364  7  9 10  1  5 10
      -0.000000408354  7  9 10  1  6  7
       0.000000000000  7  9 10  1  6  8
       0.000000000000  7  9 10  1  6  9
       0.000000878614  7  9 10  1  6 10
      -0.000000396221  7  9 10  1  7  8
       0.000000126997  7  9 10  1  7  9
       0.000000000000  7  9 10  1  7 10
       0.000000000000  7  9 10  1  8  9
      -0.000000081191  7  9 10  1  8 10
       0.000000024175  7  9 10  1  9 10
       0.000000000000  7  9 10  2  3  4
      -0.000000255581  7  9 10  2  3  5
       0.000000948707  7  9 10  2  3  6
       0.000000000000  7  9 10  2  3  7
      -0.000001488522  7  9 10  2  3  8
       0.000000469137  7  9 10  2  3  9
       0.000000000000  7  9 10  2  3 10
      -0.000000086545  7  9 10  2  4  5
       0.000000315008  7  9 10  2  4  6
       0.000000000000  7  9 10  2  4  7
       0.000000663350  7  9 10  2  4  8
      -0.000000213336  7  9 10  2  4  9
       0.000000000000  7  9 10  2  4 10
       0.000000000000  7  9 10  2  5  6
      -0.000000134637  7  9 10  2  5  7
       0.000000000000  7  9 10  2  5  8
       0.000000000000  7  9 10  2  5  9
      -0.000000350785  7  9 10  2  5 10
       0.000000502043  7  9 10  2  6  7
       0.000000000000  7  9 10  2  6  8
       0.000000000000  7  9 10  2  6  9
       0.000001304538  7  9 10  2  6 10
      -0.000000831854  7  9 10  2  7  8
       0.000000273254  7  9 10  2  7  9
       0.000000000000  7  9 10  2  7 10
       0.000000000000  7  9 10  2  8  9
       0.000000673557  7  9 10  2  8 10
      -0.000000218122  7  9 10  2  9 10
       0.000000042144  7  9 10  3  4  5
      -0.000000125487  7  9 10  3  4  6
       0.000000000000  7  9 10  3  4  7
      -0.000000258310  7  9 10  3  4  8
       0.000000082667  7  9 10  3  4  9
       0.000000000000  7  9 10  3  4 10
       0.000000000000  7  9 10  3  5  6
       0.000000041745  7  9 10  3  5  7
       0.000000000000  7  9 10  3  5  8
       0.000000000000  7  9 10  3  5  9
       0.000000035008  7  9 10  3  5 10
      -0.000000129883  7  9 10  3  6  7
       0.000000000000  7  9 10  3  6  8
       0.000000000000  7  9 10  3  6  9
      -0.000000101966  7  9 10  3  6 10
       0.000000029827  7  9 10  3  7  8
       0.000000000000  7  9 10  3  7  9
       0.000000000000  7  9 10  3  7 10
       0.000000000000  7  9 10  3  8  9
       0.000000479017  7  9 10  3  8 10
      -0.000000154033  7  9 10  3  9 10
       0.000000000000  7  9 10  4  5  6
       0.000000000000  7  9 10  4  5  7
       0.000000000000  7  9 10  4  5  8
       0.000000000000  7  9 10  4  5  9
       0.000000000000  7  9 10  4  5 10
       0.000000064760  7  9 10  4  6  7
       0.000000000000  7  9 10  4  6  8
       0.000000000000  7  9 10  4  6  9
      -0.000000037113  7  9 10  4  6 10
       0.000000387451  7  9 10  4  7  8
      -0.000000123122  7  9 10  4  7  9
       0.000000000000  7  9 10  4  7 10
       0.000000000000  7  9 10  4  8  9
      -0.000000488461  7  9 10  4  8 10
       0.000000155642  7  9 10  4  9 10
       0.000000000000  7  9 10  5  6  7
       0.000000000000  7  9 10  5  6  8
       0.000000000000  7  9 10  5  6  9
       0.000000000000  7  9 10  5  6 10
       0.000000000000  7  9 10  5  7  8
       0.000000000000  7  9 10  5  7  9
      -0.000000071684  7  9 10  5  7 10
       0.000000000000  7  9 10  5  8  9
       0.000000000000  7  9 10  5  8 10
       0.000000000000  7  9 10  5  9 10
       0.000000000000  7  9 10  6  7  8
       0.000000000000  7  9 10  6  7  9
       0.000000264736  7  9 10  6  7 10
       0.000000000000  7  9 10  6  8  9
       0.000000000000  7  9 10  6  8 10
       0.000000000000  7  9 10  6  9 10
       0.000000000000  7  9 10  7  8  9
       0.000000446831  7  9 10  7  8 10
      -0.000000144272  7  9 10  7  9 10
       0.000000000000  7  9 10  8  9 10
       0.000000000000  8  9 10  1  2  3
       0.000000000000  8  9 10  1  2  4
       0.000000000000  8  9 10  1  2  5
       0.000000000000  8  9 10  1  2  6
       0.000000000000  8  9 10  1  2  7
       0.000000000000  8  9 10  1  2  8
       0.000000000000  8  9 10  1  2  9
       0.000000000000  8  9 10  1  2 10
       0.000000000000  8  9 10  1  3  4
       0.000000000000  8  9 10  1  3  5
       0.000000000000  8  9 10  1  3  6
       0.000000000000  8  9 10  1  3  7
       0.000000000000  8  9 10  1  3  8
       0.000000000000  8  9 10  1  3  9
       0.000000000000  8  9 10  1  3 10
       0.000000000000  8  9 10  1  4  5
       0.000000000000  8  9 10  1  4  6
       0.000000000000  8  9 10  1  4  7
       0.000000000000  8  9 10  1  4  8
       0.000000000000  8  9 10  1  4  9
       0.000000000000  8  9 10  1  4 10
      -0.000000849547  8  9 10  1  5  6
       0.000000000000  8  9 10  1  5  7
      -0.000000548454  8  9 10  1  5  8
       0.000000338648  8  9 10  1  5  9
       0.000000000000  8  9 10  1  5 10
       0.000000000000  8  9 10  1  6  7
      -0.000000338648  8  9 10  1  6  8
      -0.000000548454  8  9 10  1  6  9
       0.000000000000  8  9 10  1  6 10
       0.000000000000  8  9 10  1  7  8
       0.000000000000  8  9 10  1  7  9
       0.000000000000  8  9 10  1  7 10
       0.000000206760  8  9 10  1  8  9
       0.000000000000  8  9 10  1  8 10
       0.000000000000  8  9 10  1  9 10
       0.000000000000  8  9 10  2  3  4
       0.000000000000  8  9 10  2  3  5
       0.000000000000  8  9 10  2  3  6
       0.000000000000  8  9 10  2  3  7
       0.000000000000  8  9 10  2  3  8
       0.000000000000  8  9 10  2  3  9
       0.000000000000  8  9 10  2  3 10
       0.000000000000  8  9 10  2  4  5
       0.000000000000  8  9 10  2  4  6
       0.000000000000  8  9 10  2  4  7
       0.000000000000  8  9 10  2  4  8
       0.000000000000  8  9 10  2  4  9
       0.000000000000  8  9 10  2  4 10
      -0.000001231891  8  9 10  2  5  6
       0.000000000000  8  9 10  2  5  7
       0.000000065323  8  9 10  2  5  8
      -0.000000050797  8  9 10  2  5  9
       0.000000000000  8  9 10  2  5 10
       0.000000000000  8  9 10  2  6  7
       0.000000050797  8  9 10  2  6  8
       0.000000065323  8  9 10  2  6  9
       0.000000000000  8  9 10  2  6 10
       0.000000000000  8  9 10  2  7  8
       0.000000000000  8  9 10  2  7  9
       0.000000000000  8  9 10  2  7 10
       0.000000685696  8  9 10  2  8  9
       0.000000000000  8  9 10  2  8 10
       0.000000000000  8  9 10  2  9 10
       0.000000000000  8  9 10  3  4  5
       0.000000000000  8  9 10  3  4  6
       0.000000000000  8  9 10  3  4  7
       0.000000000000  8  9 10  3  4  8
       0.000000000000  8  9 10  3  4  9
       0.000000000000  8  9 10  3  4 10
       0.000000143343  8  9 10  3  5  6
       0.000000000000  8  9 10  3  5  7
       0.000000069254  8  9 10  3  5  8
      -0.000000038207  8  9 10  3  5  9
       0.000000000000  8  9 10  3  5 10
       0.000000000000  8  9 10  3  6  7
       0.000000038207  8  9 10  3  6  8
       0.000000069254  8  9 10  3  6  9
       0.000000000000  8  9 10  3  6 10
       0.000000000000  8  9 10  3  7  8
       0.000000000000  8  9 10  3  7  9
       0.000000000000  8  9 10  3  7 10
       0.000000058302  8  9 10  3  8  9
       0.000000000000  8  9 10  3  8 10
       0.000000000000  8  9 10  3  9 10
       0.000000075711  8  9 10  4  5  6
       0.000000000000  8  9 10  4  5  7
       0.000000078272  8  9 10  4  5  8
      -0.000000070813  8  9 10  4  5  9
       0.000000000000  8  9 10  4  5 10
       0.000000000000  8  9 10  4  6  7
       0.000000070813  8  9 10  4  6  8
       0.000000078272  8  9 10  4  6  9
       0.000000000000  8  9 10  4  6 10
       0.000000000000  8  9 10  4  7  8
       0.000000000000  8  9 10  4  7  9
       0.000000000000  8  9 10  4  7 10
      -0.000000172943  8  9 10  4  8  9
       0.000000000000  8  9 10  4  8 10
       0.000000000000  8  9 10  4  9 10
       0.000000104986  8  9 10  5  6  7
       0.000000000000  8  9 10  5  6  8
       0.000000000000  8  9 10  5  6  9
       0.000000034272  8  9 10  5  6 10
      -0.000000038842  8  9 10  5  7  8
       0.000000024545  8  9 10  5  7  9
       0.000000000000  8  9 10  5  7 10
       0.000000000000  8  9 10  5  8  9
       0.000000133459  8  9 10  5  8 10
      -0.000000087515  8  9 10  5  9 10
      -0.000000024545  8  9 10  6  7  8
      -0.000000038842  8  9 10  6  7  9
       0.000000000000  8  9 10  6  7 10
       0.000000000000  8  9 10  6  8  9
       0.000000087515  8  9 10  6  8 10
       0.000000133459  8  9 10  6  9 10
      -0.000000069379  8  9 10  7  8  9
       0.000000000000  8  9 10  7  8 10
       0.000000000000  8  9 10  7  9 10
      -0.000000025523  8  9 10  8  9 10
 /EOF


 **********************************************************************************************************************************
 DATASETS  * FILE   NREC   LENGTH (MB)   RECORD NAMES
              1      19       29.95       500      610      700      900      950      970     1000      129      960     1100   
                                          VAR    BASINP    GEOM    SYMINP    ZMAT    AOBASIS   BASIS     P2S    ABASIS      S 
                                         1400     1410     1200     1210     1080     1600     1650     1300     1700   
                                           T        V       H0       H01     AOSYM     SMH    MOLCAS    ERIS     OPER   

              2       5        5.25       700     1000      520     2100     2200   
                                         GEOM     BASIS   MCVARS     RHF      UHF  

 PROGRAMS   *        TOTAL       FCI   UHF-SCF   RHF-SCF       INT
 CPU TIMES  *         0.88      0.26      0.21      0.11      0.18
 REAL TIME  *        11.17 SEC
 DISK USED  *        38.44 MB
 **********************************************************************************************************************************
 Molecular orbitals read from record     2200.2  Type=UHF/ALPHA (state 1.1)
 Occupation numbers read from record     2200.2  Type=UHF/ALPHA (state 1.1)
 Orbital energies read from record       2200.2  Type=UHF/ALPHA (state 1.1)
 Redundancy group numbers read from rec  2200.2  Type=UHF/BETA (state 1.1)
 Molecular orbitals read from record     2200.2  Type=UHF/BETA (state 1.1)
 Occupation numbers read from record     2200.2  Type=UHF/BETA (state 1.1)
 Orbital energies read from record       2200.2  Type=UHF/BETA (state 1.1)
 Redundancy group numbers read from rec  2200.2  Type=UHF/BETA (state 1.1)
 Molecular orbitals read from record     2200.2  Type=UHF/NATURAL (state 1.1)
 Occupation numbers read from record     2200.2  Type=UHF/NATURAL (state 1.1)
 Orbital energies read from record       2200.2  Type=UHF/NATURAL (state 1.1)
 Redundancy group numbers read from rec  2200.2  Type=UHF/BETA (state 1.1)

 FCI/STO-3G energy=    -14.667372039325

             FCI         UHF-SCF         RHF-SCF
    -14.66737204    -14.64114536    -14.63864283
 **********************************************************************************************************************************
 Molpro calculation terminated
