
 Primary working directories    : /scr/yuriaoto/job.023437/molpro.eRxlWYMoZY
 Secondary working directories  : /scr/yuriaoto/job.023437/molpro.eRxlWYMoZY
 Wavefunction directory         : /scr/yuriaoto/job.023437/
 Main file repository           : /scr/yuriaoto/job.023437/molpro.eRxlWYMoZY/

 id        : yuriaoto

 Nodes             nprocs
 t-rex.ufabc.int.br    1

 Using customized tuning parameters: mindgm=8; mindgv=16; mindgc=1; mindgr=1; noblas=0; minvec=7
 default implementation of scratch files=df  


 Variables initialized (933), CPU time= 0.00 sec
 ***,
 memory,40,m
 gprint,orbital,basis,civector
 gthresh,thrprint=0,printci=0.0
 file,3,wfu.dat,old
 
 {ccsd,CC_NORM_MAX=10.0
 thresh,printci=0.0,ENERGY=1.0E-10,COEFF=1.0E-12
 print,ref=1
 core,0
 wf,6,1,0;
 }
 
 Commands  initialized (760), CPU time= 0.01 sec, 617 directives.
 Default parameters read. Elapsed time= 0.07 sec

 Checking input...
 Passed
1


                                         ***  PROGRAM SYSTEM MOLPRO  ***
                                       Copyright, TTI GmbH Stuttgart, 2015
                                    Version 2019.2 linked Abr  7 2019 15:10:35


 **********************************************************************************************************************************
 LABEL *                                                                                 
  64 bit serial version                                                                  DATE: 02-Jun-20          TIME: 00:33:52  
 **********************************************************************************************************************************

 SHA1:             3a8a58c585c929645742fb5a1b7541a4ad1da699
 **********************************************************************************************************************************


 THRESHOLDS:

 ZERO    =  1.00D-12  ONEINT  =  1.00D-12  TWOINT  =  1.00D-11  PREFAC  =  1.00D-14  XXXXXX  =  1.00D-09  EORDER  =  1.00D-04
 ENERGY  =  0.00D+00  ETEST   =  0.00D+00  EDENS   =  0.00D+00  THRDEDEF=  1.00D-06  GRADIENT=  1.00D-02  STEP    =  1.00D-03
 ORBITAL =  1.00D-05  CIVEC   =  1.00D-05  COEFF   =  1.00D-04  PRINTCI =  0.00D+00  PUNCHCI =  9.90D+01  OPTGRAD =  3.00D-04
 OPTENERG=  1.00D-06  OPTSTEP =  3.00D-04  THRGRAD =  1.00D-10  COMPRESS=  1.00D-11  VARMIN  =  1.00D-07  VARMAX  =  1.00D-03
 THRDOUB =  0.00D+00  THRDIV  =  1.00D-05  THRRED  =  1.00D-07  THRPSP  =  1.00D+00  THRDC   =  1.00D-10  THRCS   =  1.00D-10
 THRNRM  =  1.00D-08  THREQ   =  0.00D+00  THRDE   =  1.00D+00  THRREF  =  1.00D-05  SPARFAC =  1.00D+00  THRDLP  =  1.00D-07
 THRDIA  =  1.00D-10  THRDLS  =  1.00D-07  THRGPS  =  0.00D+00  THRKEX  =  0.00D+00  THRDIS  =  2.00D-01  THRVAR  =  1.00D-10
 THRLOC  =  1.00D-06  THRGAP  =  1.00D-06  THRLOCT = -1.00D+00  THRGAPT = -1.00D+00  THRORB  =  1.00D-06  THRMLTP =  0.00D+00
 THRCPQCI=  1.00D-10  KEXTA   =  0.00D+00  THRCOARS=  0.00D+00  SYMTOL  =  1.00D-06  GRADTOL =  1.00D-06  THROVL  =  1.00D-08
 THRORTH =  1.00D-08  GRID    =  1.00D-06  GRIDMAX =  1.00D-03  DTMAX   =  0.00D+00  THROCCDE=  1.00D-01  THROCCDE=  1.00D-01
 THRPRINT=  0.00D+00


 Variable memory set to   40000000 words,  buffer space 



 Permanent file  3  wfu.dat  assigned.  Implementation=df    Size= 14.09 MB


 PROGRAM * RESTART 


 Reading variables from file 3

 _FNUC           =      0.00000000
 _BASIS          =    CC-PVDZ
 _NELEC          =      6.00000000
 _PROGRAM        =    RHF-SCF
 _DMZ            =      0.00000000
 _DMX_SCF        =      0.00000000
 _DMY_SCF        =      0.00000000
 _DMZ_SCF        =      0.00000000
 _HOMO           =      3.10000000
 _EHOMO          =     -0.18089003
 _LUMO           =      4.10000000
 _ELUMO          =      0.00860175
 _ENERGY         =    -14.86923112
 _ENERGY_METHOD  =    RHF
 _ENERGY_BASIS   =    cc-pVDZ
 _ENUC           =      1.80000000
 _EPS1(1:14)     =     -2.44754692    -2.44716908    -0.18089003     0.00860175     0.04506451     0.08426832
                        0.14188695     0.17633377     0.25807888     0.31859242     0.31871808     0.39752665
                        0.45987531     0.94057167
 _EPS2(1:6)      =      0.03216991     0.06717723     0.16180289     0.21640604     0.35571558     0.51855068
 _EPS3(1:6)      =      0.03216991     0.06717723     0.16180289     0.21640604     0.35571558     0.51855068
 _EPS4(1:2)      =      0.31871808     0.39752665
 _IPROC_MPP      =      0.00000000
 _IPROC_MPPX     =      0.00000000
 _ORBITAL        =   2100.30000000
 _STATUS         =      1.00000000
 _DATE           =    21-Oct-19
 _LASTORB        =    RHF
 _OUTPUT         =    /scr/yuriaoto/job.022420/RHF.xml
 _PGROUP         =    C2v 
 _TIME           =    10:55:02
 R               =      5.00000000

 Geometry written to block  1 of record 700


 **********************************************************************************************************************************
 DATASETS  * FILE   NREC   LENGTH (MB)   RECORD NAMES
              3       5       14.77       500      610      700     1000     2100   
                                          VAR    BASINP    GEOM     BASIS     RHF  

 PROGRAMS   *        TOTAL   RESTART
 CPU TIMES  *         0.19      0.02
 REAL TIME  *         0.22 SEC
 DISK USED  *        26.84 MB
 **********************************************************************************************************************************


 Recomputing integrals since basis changed


 Using spherical harmonics

 Library entry LI     S cc-pVDZ              selected for orbital group  1
 Library entry LI     P cc-pVDZ              selected for orbital group  1
 Library entry LI     D cc-pVDZ              selected for orbital group  1


 PROGRAM * SEWARD (Integral evaluation for generally contracted gaussian basis sets)     Author: Roland Lindh, 1990

 Geometry written to block  1 of record 700

 Orientation using atomic masses  
 Molecule type: Linear
 User-specified symmetry elements: X,Y
 Symmetry elements: X,Y
 Rotational constants:      20.8009354     20.8009354      0.0000000 GHz  (calculated with average atomic masses)

 Point group  C2v 



 ATOMIC COORDINATES

 NR  ATOM    CHARGE       X              Y              Z

   1  LI1     3.00    0.000000000    0.000000000   -2.500000000
   2  LI2     3.00    0.000000000    0.000000000    2.500000000

 Bond lengths in Bohr (Angstrom)

 1-2  5.000000000
     ( 2.645886055)


 BASIS DATA

   Nr Sym  Nuc  Type         Exponents   Contraction coefficients

    1.1 A1    1  1s        1469.000000     0.000766   -0.000120    0.000000
    2.1 A1                  220.500000     0.005892   -0.000923    0.000000
    3.1 A1                   50.260000     0.029671   -0.004689    0.000000
                             14.240000     0.109180   -0.017682    0.000000
                              4.581000     0.282789   -0.048902    0.000000
                              1.580000     0.453123   -0.096009    0.000000
                              0.564000     0.274774   -0.136380    0.000000
                              0.073450     0.009751    0.575102    0.000000
                              0.028050    -0.003180    0.517661    1.000000
    4.1 A1    1  2pz          1.534000     0.022784    0.000000
    5.1 A1                    0.274900     0.139107    0.000000
                              0.073620     0.500375    0.000000
                              0.024030     0.508474    1.000000
    6.1 A1    1  3d0          0.114400     1.000000
    7.1 A1    1  3d2+         0.114400     1.000000
    8.1 A1    2  1s        1469.000000     0.000766   -0.000120    0.000000
    9.1 A1                  220.500000     0.005892   -0.000923    0.000000
   10.1 A1                   50.260000     0.029671   -0.004689    0.000000
                             14.240000     0.109180   -0.017682    0.000000
                              4.581000     0.282789   -0.048902    0.000000
                              1.580000     0.453123   -0.096009    0.000000
                              0.564000     0.274774   -0.136380    0.000000
                              0.073450     0.009751    0.575102    0.000000
                              0.028050    -0.003180    0.517661    1.000000
   11.1 A1    2  2pz          1.534000     0.022784    0.000000
   12.1 A1                    0.274900     0.139107    0.000000
                              0.073620     0.500375    0.000000
                              0.024030     0.508474    1.000000
   13.1 A1    2  3d0          0.114400     1.000000
   14.1 A1    2  3d2+         0.114400     1.000000
    1.2 B1    1  2px          1.534000     0.022784    0.000000
    2.2 B1                    0.274900     0.139107    0.000000
                              0.073620     0.500375    0.000000
                              0.024030     0.508474    1.000000
    3.2 B1    1  3d1+         0.114400     1.000000
    4.2 B1    2  2px          1.534000     0.022784    0.000000
    5.2 B1                    0.274900     0.139107    0.000000
                              0.073620     0.500375    0.000000
                              0.024030     0.508474    1.000000
    6.2 B1    2  3d1+         0.114400     1.000000
    1.3 B2    1  2py          1.534000     0.022784    0.000000
    2.3 B2                    0.274900     0.139107    0.000000
                              0.073620     0.500375    0.000000
                              0.024030     0.508474    1.000000
    3.3 B2    1  3d1-         0.114400     1.000000
    4.3 B2    2  2py          1.534000     0.022784    0.000000
    5.3 B2                    0.274900     0.139107    0.000000
                              0.073620     0.500375    0.000000
                              0.024030     0.508474    1.000000
    6.3 B2    2  3d1-         0.114400     1.000000
    1.4 A2    1  3d2-         0.114400     1.000000
    2.4 A2    2  3d2-         0.114400     1.000000

 NUCLEAR CHARGE:                    6
 NUMBER OF PRIMITIVE AOS:          54
 NUMBER OF SYMMETRY AOS:           52
 NUMBER OF CONTRACTIONS:           28   (   14A1  +    6B1  +    6B2  +    2A2  )
 NUMBER OF CORE ORBITALS:           2   (    2A1  +    0B1  +    0B2  +    0A2  )
 NUMBER OF VALENCE ORBITALS:        8   (    4A1  +    2B1  +    2B2  +    0A2  )


 NUCLEAR REPULSION ENERGY    1.80000000

 EXTRA SYMMETRY OF AOS IN SYMMETRY 1:   1 1 1 1 1 1 2 1 1 1   1 1 1 2

 Eigenvalues of metric

         1 0.256E-02 0.901E-02 0.313E-01 0.995E-01 0.101E+00 0.761E+00 0.792E+00 0.899E+00
         2 0.586E-01 0.135E+00 0.230E+00 0.973E+00 0.138E+01 0.322E+01
         3 0.586E-01 0.135E+00 0.230E+00 0.973E+00 0.138E+01 0.322E+01
         4 0.761E+00 0.124E+01


 Contracted 2-electron integrals neglected if value below      1.0D-11
 AO integral compression algorithm  1   Integral accuracy      1.0D-11

     0.262 MB (compressed) written to integral file (100.0%)


 NUMBER OF SORTED TWO-ELECTRON INTEGRALS:      24933.     BUFFER LENGTH:  32768
 NUMBER OF SEGMENTS:   1  SEGMENT LENGTH:      24933      RECORD LENGTH: 524288

 Memory used in sort:       0.58 MW

 SORT1 READ       32016. AND WROTE       21069. INTEGRALS IN      1 RECORDS. CPU TIME:     0.00 SEC, REAL TIME:     0.00 SEC
 SORT2 READ       21069. AND WROTE       24933. INTEGRALS IN      1 RECORDS. CPU TIME:     0.02 SEC, REAL TIME:     0.01 SEC

 FILE SIZES:   FILE 1:    30.2 MBYTE,  FILE 4:     4.2 MBYTE,   TOTAL:     34.5 MBYTE

 OPERATOR DM      FOR CENTER  0  COORDINATES:    0.000000    0.000000    0.000000


 **********************************************************************************************************************************
 DATASETS  * FILE   NREC   LENGTH (MB)   RECORD NAMES
              1      19       30.08       500      700      610      900      950      970     1000      129      960     1100   
                                          VAR     GEOM    BASINP   SYMINP    ZMAT    AOBASIS   BASIS     P2S    ABASIS      S 
                                         1400     1410     1200     1210     1080     1600     1650     1300     1700   
                                           T        V       H0       H01     AOSYM     SMH    MOLCAS    ERIS     OPER   

              3       5       14.77       500      610      700     1000     2100   
                                          VAR    BASINP    GEOM     BASIS     RHF  

 PROGRAMS   *        TOTAL       INT   RESTART
 CPU TIMES  *         0.37      0.18      0.02
 REAL TIME  *         0.55 SEC
 DISK USED  *        49.46 MB
 **********************************************************************************************************************************


 PROGRAM * CCSD (Closed-shell coupled cluster)     Authors: C. Hampel, H.-J. Werner, 1991, M. Deegan, P.J. Knowles, 1992


 Input parameters for THRESH:

 ENERGY   =    1.00D-10
 COEFF    =    1.00D-12
 PRINTCI  =    0.000000
 THRPRINT =    0.000000

 Convergence thresholds:  THRVAR = 1.00D-24  THRDEN = 1.00D-10

 Number of closed-shell orbitals:   3 (   3   0   0   0 )
 Number of external orbitals:      25 (  11   6   6   2 )

 Molecular orbitals read from record     2100.3  Type=RHF/CANONICAL (state 1.1)

 Number of N-1 electron functions:               3
 Number of N-2 electron functions:               6
 Number of singly external CSFs:                33
 Number of doubly external CSFs:               924
 Total number of CSFs:                         958

 Length of J-op  integral file:               0.00 MB
 Length of K-op  integral file:               0.05 MB
 Length of 3-ext integral record:             0.00 MB

 Integral transformation finished. Total CPU:   0.00 sec, npass=  1  Memory used:   0.08 MW

 Reference energy:                    -14.86923112

 MP2 singlet pair energy:              -0.01997317
 MP2 triplet pair energy:              -0.00016887
 MP2 correlation energy:               -0.02014205
 MP2 total energy:                    -14.88937317

 SCS-MP2 correlation energy:           -0.02407288   (PS=  1.200000  PT=  0.333333)
 SCS-MP2 total energy:                -14.89330400

 ITER.      SQ.NORM     CORR.ENERGY   TOTAL ENERGY   ENERGY CHANGE        DEN1      VAR(S)    VAR(P)  DIIS     TIME  TIME/IT
   1      1.05144518    -0.02842096   -14.89765208    -0.00827892    -0.00442389  0.64D-04  0.28D-02  1  1     0.02     0.01
   2      1.08734882    -0.03189747   -14.90112859    -0.00347651    -0.00576258  0.40D-04  0.30D-03  2  2     0.03     0.01
   3      1.09933050    -0.03196418   -14.90119530    -0.00006671    -0.00125649  0.26D-05  0.53D-04  3  3     0.03     0.01
   4      1.10404592    -0.03200683   -14.90123795    -0.00004264    -0.00033655  0.96D-06  0.11D-04  4  4     0.03     0.01
   5      1.10571781    -0.03206657   -14.90129769    -0.00005974    -0.00011269  0.29D-06  0.14D-05  5  5     0.04     0.01
   6      1.10590180    -0.03204143   -14.90127255     0.00002514    -0.00000308  0.14D-06  0.24D-06  6  6     0.04     0.01
   7      1.10601594    -0.03204420   -14.90127533    -0.00000277    -0.00000741  0.69D-07  0.51D-07  6  1     0.05     0.01
   8      1.10603273    -0.03204438   -14.90127551    -0.00000018     0.00000026  0.23D-07  0.12D-07  6  2     0.05     0.00
   9      1.10604179    -0.03204438   -14.90127550     0.00000000    -0.00000065  0.38D-08  0.17D-08  6  3     0.05     0.00
  10      1.10603515    -0.03204442   -14.90127554    -0.00000004     0.00000055  0.55D-09  0.38D-09  6  4     0.06     0.00
  11      1.10603224    -0.03204444   -14.90127556    -0.00000002     0.00000017  0.83D-10  0.85D-10  6  5     0.06     0.00
  12      1.10603093    -0.03204444   -14.90127556     0.00000000     0.00000002  0.43D-11  0.16D-10  6  3     0.06     0.00
  13      1.10603081    -0.03204443   -14.90127555     0.00000001    -0.00000004  0.18D-12  0.30D-11  6  6     0.06     0.00
  14      1.10603065    -0.03204443   -14.90127555     0.00000000     0.00000000  0.11D-12  0.66D-12  6  1     0.07     0.00
  15      1.10603060    -0.03204443   -14.90127555    -0.00000000     0.00000001  0.51D-13  0.16D-12  6  2     0.07     0.00
  16      1.10603058    -0.03204443   -14.90127555    -0.00000000     0.00000000  0.11D-13  0.27D-13  6  4     0.07     0.00
  17      1.10603060    -0.03204443   -14.90127555    -0.00000000    -0.00000000  0.45D-15  0.32D-14  6  5     0.08     0.00
  18      1.10603063    -0.03204443   -14.90127555     0.00000000    -0.00000000  0.15D-16  0.49D-15  6  3     0.08     0.00
  19      1.10603064    -0.03204443   -14.90127555     0.00000000    -0.00000000  0.12D-17  0.77D-16  6  6     0.08     0.00
  20      1.10603065    -0.03204443   -14.90127555     0.00000000    -0.00000000  0.20D-17  0.12D-16  6  1     0.09     0.00
  21      1.10603065    -0.03204443   -14.90127555     0.00000000    -0.00000000  0.49D-18  0.28D-17  6  2     0.09     0.00
  22      1.10603065    -0.03204443   -14.90127555     0.00000000    -0.00000000  0.69D-19  0.72D-18  6  4     0.09     0.00
  23      1.10603065    -0.03204443   -14.90127555     0.00000000    -0.00000000  0.38D-19  0.20D-18  6  5     0.09     0.00
  24      1.10603065    -0.03204443   -14.90127555     0.00000000    -0.00000000  0.22D-19  0.49D-19  6  3     0.10     0.00
  25      1.10603065    -0.03204443   -14.90127555     0.00000000    -0.00000000  0.46D-20  0.10D-19  6  6     0.10     0.00
  26      1.10603065    -0.03204443   -14.90127555    -0.00000000     0.00000000  0.49D-21  0.20D-20  6  1     0.10     0.00
  27      1.10603065    -0.03204443   -14.90127555    -0.00000000     0.00000000  0.48D-22  0.32D-21  6  2     0.10     0.00
  28      1.10603065    -0.03204443   -14.90127555    -0.00000000     0.00000000  0.13D-22  0.56D-22  6  4     0.11     0.00
  29      1.10603065    -0.03204443   -14.90127555    -0.00000000     0.00000000  0.94D-24  0.82D-23  6  5     0.11     0.00
  30      1.10603065    -0.03204443   -14.90127555    -0.00000000     0.00000000  0.13D-24  0.18D-23  6  3     0.11     0.00
  31      1.10603065    -0.03204443   -14.90127555    -0.00000000     0.00000000  0.37D-25  0.47D-24  6  6     0.12     0.00

 Norm of t1 vector:      0.02678611      S-energy:    -0.00000000      T1 diagnostic:  0.00773248
                                                                       D1 diagnostic:  0.01892859

 Singles amplitudes (print threshold =  0.000E+00):

         I         SYM. A    A   T(IA)

         1         1         1      0.00000000
         1         1         2      0.00001096
         1         1         3     -0.00000000
         1         1         4     -0.00000776
         1         1         5     -0.00027520
         1         1         6      0.00000000
         1         1         7     -0.00000000
         1         1         8     -0.00000000
         1         1         9     -0.00000000
         1         1        10      0.00002543
         1         1        11      0.00000000
         2         1         1     -0.00034822
         2         1         2     -0.00000000
         2         1         3      0.00038319
         2         1         4      0.00000000
         2         1         5     -0.00000000
         2         1         6     -0.00013959
         2         1         7     -0.00031828
         2         1         8     -0.00000000
         2         1         9      0.00000000
         2         1        10     -0.00000000
         2         1        11     -0.00006291
         3         1         1     -0.00000000
         3         1         2      0.01398989
         3         1         3      0.00000000
         3         1         4     -0.01013978
         3         1         5     -0.00723783
         3         1         6     -0.00000000
         3         1         7      0.00000000
         3         1         8     -0.00000000
         3         1         9      0.00000000
         3         1        10     -0.00271295
         3         1        11     -0.00000000

 Doubles amplitudes (print threshold =  0.000E+00):

         I         J         SYM. A    SYM. B    A         B      T(IJ, AB)

         1         1         1         1         1         1     -0.00029818
         1         1         1         1         1         2      0.00000000
         1         1         1         1         1         3      0.00048833
         1         1         1         1         1         4     -0.00000000
         1         1         1         1         1         5     -0.00000000
         1         1         1         1         1         6     -0.00021554
         1         1         1         1         1         7     -0.00035506
         1         1         1         1         1         8     -0.00000000
         1         1         1         1         1         9     -0.00000000
         1         1         1         1         1        10      0.00000000
         1         1         1         1         1        11     -0.00047628
         1         1         1         1         2         1      0.00000000
         1         1         1         1         2         2     -0.00002666
         1         1         1         1         2         3     -0.00000000
         1         1         1         1         2         4      0.00013801
         1         1         1         1         2         5     -0.00008209
         1         1         1         1         2         6     -0.00000000
         1         1         1         1         2         7      0.00000000
         1         1         1         1         2         8     -0.00000000
         1         1         1         1         2         9      0.00000000
         1         1         1         1         2        10     -0.00011087
         1         1         1         1         2        11     -0.00000000
         1         1         1         1         3         1      0.00048833
         1         1         1         1         3         2     -0.00000000
         1         1         1         1         3         3     -0.00073718
         1         1         1         1         3         4      0.00000000
         1         1         1         1         3         5      0.00000000
         1         1         1         1         3         6      0.00022020
         1         1         1         1         3         7      0.00053959
         1         1         1         1         3         8     -0.00000000
         1         1         1         1         3         9     -0.00000000
         1         1         1         1         3        10     -0.00000000
         1         1         1         1         3        11      0.00053915
         1         1         1         1         4         1     -0.00000000
         1         1         1         1         4         2      0.00013801
         1         1         1         1         4         3      0.00000000
         1         1         1         1         4         4     -0.00039191
         1         1         1         1         4         5      0.00024856
         1         1         1         1         4         6      0.00000000
         1         1         1         1         4         7     -0.00000000
         1         1         1         1         4         8      0.00000000
         1         1         1         1         4         9     -0.00000000
         1         1         1         1         4        10      0.00022991
         1         1         1         1         4        11      0.00000000
         1         1         1         1         5         1     -0.00000000
         1         1         1         1         5         2     -0.00008209
         1         1         1         1         5         3      0.00000000
         1         1         1         1         5         4      0.00024856
         1         1         1         1         5         5     -0.00070288
         1         1         1         1         5         6     -0.00000000
         1         1         1         1         5         7     -0.00000000
         1         1         1         1         5         8      0.00000000
         1         1         1         1         5         9     -0.00000000
         1         1         1         1         5        10      0.00008999
         1         1         1         1         5        11     -0.00000000
         1         1         1         1         6         1     -0.00021554
         1         1         1         1         6         2     -0.00000000
         1         1         1         1         6         3      0.00022020
         1         1         1         1         6         4      0.00000000
         1         1         1         1         6         5     -0.00000000
         1         1         1         1         6         6     -0.00064680
         1         1         1         1         6         7     -0.00003593
         1         1         1         1         6         8     -0.00000000
         1         1         1         1         6         9     -0.00000000
         1         1         1         1         6        10     -0.00000000
         1         1         1         1         6        11     -0.00117554
         1         1         1         1         7         1     -0.00035506
         1         1         1         1         7         2      0.00000000
         1         1         1         1         7         3      0.00053959
         1         1         1         1         7         4     -0.00000000
         1         1         1         1         7         5     -0.00000000
         1         1         1         1         7         6     -0.00003593
         1         1         1         1         7         7     -0.00046002
         1         1         1         1         7         8      0.00000000
         1         1         1         1         7         9     -0.00000000
         1         1         1         1         7        10      0.00000000
         1         1         1         1         7        11     -0.00003174
         1         1         1         1         8         1     -0.00000000
         1         1         1         1         8         2     -0.00000000
         1         1         1         1         8         3     -0.00000000
         1         1         1         1         8         4      0.00000000
         1         1         1         1         8         5      0.00000000
         1         1         1         1         8         6     -0.00000000
         1         1         1         1         8         7      0.00000000
         1         1         1         1         8         8     -0.00000163
         1         1         1         1         8         9      0.00000000
         1         1         1         1         8        10      0.00000000
         1         1         1         1         8        11     -0.00000000
         1         1         1         1         9         1     -0.00000000
         1         1         1         1         9         2      0.00000000
         1         1         1         1         9         3     -0.00000000
         1         1         1         1         9         4     -0.00000000
         1         1         1         1         9         5     -0.00000000
         1         1         1         1         9         6     -0.00000000
         1         1         1         1         9         7     -0.00000000
         1         1         1         1         9         8      0.00000000
         1         1         1         1         9         9     -0.00000572
         1         1         1         1         9        10      0.00000000
         1         1         1         1         9        11      0.00000000
         1         1         1         1        10         1      0.00000000
         1         1         1         1        10         2     -0.00011087
         1         1         1         1        10         3     -0.00000000
         1         1         1         1        10         4      0.00022991
         1         1         1         1        10         5      0.00008999
         1         1         1         1        10         6     -0.00000000
         1         1         1         1        10         7      0.00000000
         1         1         1         1        10         8      0.00000000
         1         1         1         1        10         9      0.00000000
         1         1         1         1        10        10     -0.00031247
         1         1         1         1        10        11     -0.00000000
         1         1         1         1        11         1     -0.00047628
         1         1         1         1        11         2     -0.00000000
         1         1         1         1        11         3      0.00053915
         1         1         1         1        11         4      0.00000000
         1         1         1         1        11         5     -0.00000000
         1         1         1         1        11         6     -0.00117554
         1         1         1         1        11         7     -0.00003174
         1         1         1         1        11         8     -0.00000000
         1         1         1         1        11         9      0.00000000
         1         1         1         1        11        10     -0.00000000
         1         1         1         1        11        11     -0.00285212
         1         1         2         2         1         1      0.00011190
         1         1         2         2         1         2     -0.00000000
         1         1         2         2         1         3     -0.00009345
         1         1         2         2         1         4     -0.00000000
         1         1         2         2         1         5      0.00007918
         1         1         2         2         1         6     -0.00000000
         1         1         2         2         2         1     -0.00000000
         1         1         2         2         2         2     -0.00000762
         1         1         2         2         2         3     -0.00000000
         1         1         2         2         2         4     -0.00009091
         1         1         2         2         2         5      0.00000000
         1         1         2         2         2         6     -0.00005583
         1         1         2         2         3         1     -0.00009345
         1         1         2         2         3         2     -0.00000000
         1         1         2         2         3         3     -0.00061662
         1         1         2         2         3         4     -0.00000000
         1         1         2         2         3         5      0.00015517
         1         1         2         2         3         6     -0.00000000
         1         1         2         2         4         1     -0.00000000
         1         1         2         2         4         2     -0.00009091
         1         1         2         2         4         3     -0.00000000
         1         1         2         2         4         4     -0.00078376
         1         1         2         2         4         5      0.00000000
         1         1         2         2         4         6     -0.00049213
         1         1         2         2         5         1      0.00007918
         1         1         2         2         5         2      0.00000000
         1         1         2         2         5         3      0.00015517
         1         1         2         2         5         4      0.00000000
         1         1         2         2         5         5     -0.00002478
         1         1         2         2         5         6      0.00000000
         1         1         2         2         6         1     -0.00000000
         1         1         2         2         6         2     -0.00005583
         1         1         2         2         6         3     -0.00000000
         1         1         2         2         6         4     -0.00049213
         1         1         2         2         6         5      0.00000000
         1         1         2         2         6         6     -0.00032706
         1         1         3         3         1         1      0.00011190
         1         1         3         3         1         2     -0.00000000
         1         1         3         3         1         3     -0.00009345
         1         1         3         3         1         4     -0.00000000
         1         1         3         3         1         5      0.00007918
         1         1         3         3         1         6     -0.00000000
         1         1         3         3         2         1     -0.00000000
         1         1         3         3         2         2     -0.00000762
         1         1         3         3         2         3     -0.00000000
         1         1         3         3         2         4     -0.00009091
         1         1         3         3         2         5      0.00000000
         1         1         3         3         2         6     -0.00005583
         1         1         3         3         3         1     -0.00009345
         1         1         3         3         3         2     -0.00000000
         1         1         3         3         3         3     -0.00061662
         1         1         3         3         3         4     -0.00000000
         1         1         3         3         3         5      0.00015517
         1         1         3         3         3         6     -0.00000000
         1         1         3         3         4         1     -0.00000000
         1         1         3         3         4         2     -0.00009091
         1         1         3         3         4         3     -0.00000000
         1         1         3         3         4         4     -0.00078376
         1         1         3         3         4         5      0.00000000
         1         1         3         3         4         6     -0.00049213
         1         1         3         3         5         1      0.00007918
         1         1         3         3         5         2      0.00000000
         1         1         3         3         5         3      0.00015517
         1         1         3         3         5         4      0.00000000
         1         1         3         3         5         5     -0.00002478
         1         1         3         3         5         6      0.00000000
         1         1         3         3         6         1     -0.00000000
         1         1         3         3         6         2     -0.00005583
         1         1         3         3         6         3     -0.00000000
         1         1         3         3         6         4     -0.00049213
         1         1         3         3         6         5      0.00000000
         1         1         3         3         6         6     -0.00032706
         1         1         4         4         1         1     -0.00000163
         1         1         4         4         1         2      0.00000000
         1         1         4         4         2         1      0.00000000
         1         1         4         4         2         2     -0.00000572
         2         1         1         1         1         1      0.00000000
         2         1         1         1         1         2      0.00003481
         2         1         1         1         1         3     -0.00000000
         2         1         1         1         1         4     -0.00002279
         2         1         1         1         1         5     -0.00046382
         2         1         1         1         1         6      0.00000000
         2         1         1         1         1         7      0.00000000
         2         1         1         1         1         8      0.00000000
         2         1         1         1         1         9     -0.00000000
         2         1         1         1         1        10      0.00023844
         2         1         1         1         1        11      0.00000000
         2         1         1         1         2         1      0.00004227
         2         1         1         1         2         2     -0.00000000
         2         1         1         1         2         3     -0.00008496
         2         1         1         1         2         4      0.00000000
         2         1         1         1         2         5     -0.00000000
         2         1         1         1         2         6     -0.00018041
         2         1         1         1         2         7      0.00012339
         2         1         1         1         2         8     -0.00000000
         2         1         1         1         2         9     -0.00000000
         2         1         1         1         2        10     -0.00000000
         2         1         1         1         2        11     -0.00036143
         2         1         1         1         3         1     -0.00000000
         2         1         1         1         3         2     -0.00007803
         2         1         1         1         3         3      0.00000000
         2         1         1         1         3         4      0.00009845
         2         1         1         1         3         5      0.00058392
         2         1         1         1         3         6     -0.00000000
         2         1         1         1         3         7      0.00000000
         2         1         1         1         3         8     -0.00000000
         2         1         1         1         3         9      0.00000000
         2         1         1         1         3        10     -0.00037573
         2         1         1         1         3        11     -0.00000000
         2         1         1         1         4         1     -0.00003867
         2         1         1         1         4         2      0.00000000
         2         1         1         1         4         3      0.00011331
         2         1         1         1         4         4     -0.00000000
         2         1         1         1         4         5      0.00000000
         2         1         1         1         4         6      0.00042524
         2         1         1         1         4         7     -0.00023145
         2         1         1         1         4         8     -0.00000000
         2         1         1         1         4         9     -0.00000000
         2         1         1         1         4        10      0.00000000
         2         1         1         1         4        11      0.00093820
         2         1         1         1         5         1     -0.00045074
         2         1         1         1         5         2     -0.00000000
         2         1         1         1         5         3      0.00057152
         2         1         1         1         5         4      0.00000000
         2         1         1         1         5         5     -0.00000000
         2         1         1         1         5         6     -0.00055957
         2         1         1         1         5         7     -0.00033478
         2         1         1         1         5         8     -0.00000000
         2         1         1         1         5         9      0.00000000
         2         1         1         1         5        10     -0.00000000
         2         1         1         1         5        11     -0.00104351
         2         1         1         1         6         1      0.00000000
         2         1         1         1         6         2     -0.00020349
         2         1         1         1         6         3     -0.00000000
         2         1         1         1         6         4      0.00047445
         2         1         1         1         6         5     -0.00059873
         2         1         1         1         6         6      0.00000000
         2         1         1         1         6         7      0.00000000
         2         1         1         1         6         8     -0.00000000
         2         1         1         1         6         9     -0.00000000
         2         1         1         1         6        10     -0.00015991
         2         1         1         1         6        11      0.00000000
         2         1         1         1         7         1      0.00000000
         2         1         1         1         7         2      0.00012379
         2         1         1         1         7         3      0.00000000
         2         1         1         1         7         4     -0.00023201
         2         1         1         1         7         5     -0.00033461
         2         1         1         1         7         6      0.00000000
         2         1         1         1         7         7      0.00000000
         2         1         1         1         7         8     -0.00000000
         2         1         1         1         7         9     -0.00000000
         2         1         1         1         7        10      0.00030253
         2         1         1         1         7        11     -0.00000000
         2         1         1         1         8         1      0.00000000
         2         1         1         1         8         2     -0.00000000
         2         1         1         1         8         3     -0.00000000
         2         1         1         1         8         4      0.00000000
         2         1         1         1         8         5     -0.00000000
         2         1         1         1         8         6     -0.00000000
         2         1         1         1         8         7     -0.00000000
         2         1         1         1         8         8     -0.00000000
         2         1         1         1         8         9     -0.00001335
         2         1         1         1         8        10     -0.00000000
         2         1         1         1         8        11     -0.00000000
         2         1         1         1         9         1     -0.00000000
         2         1         1         1         9         2     -0.00000000
         2         1         1         1         9         3      0.00000000
         2         1         1         1         9         4     -0.00000000
         2         1         1         1         9         5      0.00000000
         2         1         1         1         9         6     -0.00000000
         2         1         1         1         9         7     -0.00000000
         2         1         1         1         9         8     -0.00001384
         2         1         1         1         9         9     -0.00000000
         2         1         1         1         9        10     -0.00000000
         2         1         1         1         9        11      0.00000000
         2         1         1         1        10         1      0.00024951
         2         1         1         1        10         2     -0.00000000
         2         1         1         1        10         3     -0.00038592
         2         1         1         1        10         4      0.00000000
         2         1         1         1        10         5     -0.00000000
         2         1         1         1        10         6     -0.00012505
         2         1         1         1        10         7      0.00030215
         2         1         1         1        10         8     -0.00000000
         2         1         1         1        10         9     -0.00000000
         2         1         1         1        10        10     -0.00000000
         2         1         1         1        10        11     -0.00013220
         2         1         1         1        11         1      0.00000000
         2         1         1         1        11         2     -0.00040140
         2         1         1         1        11         3     -0.00000000
         2         1         1         1        11         4      0.00102421
         2         1         1         1        11         5     -0.00111124
         2         1         1         1        11         6      0.00000000
         2         1         1         1        11         7     -0.00000000
         2         1         1         1        11         8     -0.00000000
         2         1         1         1        11         9      0.00000000
         2         1         1         1        11        10     -0.00019408
         2         1         1         1        11        11      0.00000000
         2         1         2         2         1         1     -0.00000000
         2         1         2         2         1         2     -0.00002604
         2         1         2         2         1         3     -0.00000000
         2         1         2         2         1         4     -0.00021952
         2         1         2         2         1         5     -0.00000000
         2         1         2         2         1         6     -0.00013849
         2         1         2         2         2         1     -0.00002816
         2         1         2         2         2         2      0.00000000
         2         1         2         2         2         3     -0.00009368
         2         1         2         2         2         4      0.00000000
         2         1         2         2         2         5      0.00001851
         2         1         2         2         2         6      0.00000000
         2         1         2         2         3         1     -0.00000000
         2         1         2         2         3         2     -0.00008778
         2         1         2         2         3         3     -0.00000000
         2         1         2         2         3         4     -0.00072565
         2         1         2         2         3         5     -0.00000000
         2         1         2         2         3         6     -0.00046061
         2         1         2         2         4         1     -0.00023357
         2         1         2         2         4         2      0.00000000
         2         1         2         2         4         3     -0.00076468
         2         1         2         2         4         4      0.00000000
         2         1         2         2         4         5      0.00014511
         2         1         2         2         4         6      0.00000000
         2         1         2         2         5         1     -0.00000000
         2         1         2         2         5         2      0.00001909
         2         1         2         2         5         3     -0.00000000
         2         1         2         2         5         4      0.00015029
         2         1         2         2         5         5      0.00000000
         2         1         2         2         5         6      0.00007746
         2         1         2         2         6         1     -0.00014840
         2         1         2         2         6         2      0.00000000
         2         1         2         2         6         3     -0.00048798
         2         1         2         2         6         4      0.00000000
         2         1         2         2         6         5      0.00007313
         2         1         2         2         6         6      0.00000000
         2         1         3         3         1         1     -0.00000000
         2         1         3         3         1         2     -0.00002604
         2         1         3         3         1         3     -0.00000000
         2         1         3         3         1         4     -0.00021952
         2         1         3         3         1         5     -0.00000000
         2         1         3         3         1         6     -0.00013849
         2         1         3         3         2         1     -0.00002816
         2         1         3         3         2         2      0.00000000
         2         1         3         3         2         3     -0.00009368
         2         1         3         3         2         4      0.00000000
         2         1         3         3         2         5      0.00001851
         2         1         3         3         2         6      0.00000000
         2         1         3         3         3         1     -0.00000000
         2         1         3         3         3         2     -0.00008778
         2         1         3         3         3         3     -0.00000000
         2         1         3         3         3         4     -0.00072565
         2         1         3         3         3         5     -0.00000000
         2         1         3         3         3         6     -0.00046061
         2         1         3         3         4         1     -0.00023357
         2         1         3         3         4         2      0.00000000
         2         1         3         3         4         3     -0.00076468
         2         1         3         3         4         4      0.00000000
         2         1         3         3         4         5      0.00014511
         2         1         3         3         4         6      0.00000000
         2         1         3         3         5         1     -0.00000000
         2         1         3         3         5         2      0.00001909
         2         1         3         3         5         3     -0.00000000
         2         1         3         3         5         4      0.00015029
         2         1         3         3         5         5      0.00000000
         2         1         3         3         5         6      0.00007746
         2         1         3         3         6         1     -0.00014840
         2         1         3         3         6         2      0.00000000
         2         1         3         3         6         3     -0.00048798
         2         1         3         3         6         4      0.00000000
         2         1         3         3         6         5      0.00007313
         2         1         3         3         6         6      0.00000000
         2         1         4         4         1         1     -0.00000000
         2         1         4         4         1         2     -0.00001335
         2         1         4         4         2         1     -0.00001384
         2         1         4         4         2         2     -0.00000000
         2         2         1         1         1         1     -0.00030357
         2         2         1         1         1         2     -0.00000000
         2         2         1         1         1         3      0.00049322
         2         2         1         1         1         4      0.00000000
         2         2         1         1         1         5      0.00000000
         2         2         1         1         1         6     -0.00023111
         2         2         1         1         1         7     -0.00035436
         2         2         1         1         1         8     -0.00000000
         2         2         1         1         1         9     -0.00000000
         2         2         1         1         1        10     -0.00000000
         2         2         1         1         1        11     -0.00050336
         2         2         1         1         2         1     -0.00000000
         2         2         1         1         2         2     -0.00001529
         2         2         1         1         2         3      0.00000000
         2         2         1         1         2         4      0.00011384
         2         2         1         1         2         5     -0.00006123
         2         2         1         1         2         6      0.00000000
         2         2         1         1         2         7     -0.00000000
         2         2         1         1         2         8      0.00000000
         2         2         1         1         2         9      0.00000000
         2         2         1         1         2        10     -0.00009419
         2         2         1         1         2        11      0.00000000
         2         2         1         1         3         1      0.00049322
         2         2         1         1         3         2      0.00000000
         2         2         1         1         3         3     -0.00074158
         2         2         1         1         3         4     -0.00000000
         2         2         1         1         3         5     -0.00000000
         2         2         1         1         3         6      0.00023450
         2         2         1         1         3         7      0.00053877
         2         2         1         1         3         8     -0.00000000
         2         2         1         1         3         9     -0.00000000
         2         2         1         1         3        10      0.00000000
         2         2         1         1         3        11      0.00056366
         2         2         1         1         4         1      0.00000000
         2         2         1         1         4         2      0.00011384
         2         2         1         1         4         3     -0.00000000
         2         2         1         1         4         4     -0.00034095
         2         2         1         1         4         5      0.00020478
         2         2         1         1         4         6     -0.00000000
         2         2         1         1         4         7      0.00000000
         2         2         1         1         4         8     -0.00000000
         2         2         1         1         4         9     -0.00000000
         2         2         1         1         4        10      0.00019401
         2         2         1         1         4        11     -0.00000000
         2         2         1         1         5         1      0.00000000
         2         2         1         1         5         2     -0.00006123
         2         2         1         1         5         3     -0.00000000
         2         2         1         1         5         4      0.00020478
         2         2         1         1         5         5     -0.00066677
         2         2         1         1         5         6      0.00000000
         2         2         1         1         5         7      0.00000000
         2         2         1         1         5         8     -0.00000000
         2         2         1         1         5         9     -0.00000000
         2         2         1         1         5        10      0.00012080
         2         2         1         1         5        11      0.00000000
         2         2         1         1         6         1     -0.00023111
         2         2         1         1         6         2      0.00000000
         2         2         1         1         6         3      0.00023450
         2         2         1         1         6         4     -0.00000000
         2         2         1         1         6         5      0.00000000
         2         2         1         1         6         6     -0.00069624
         2         2         1         1         6         7     -0.00003357
         2         2         1         1         6         8     -0.00000000
         2         2         1         1         6         9     -0.00000000
         2         2         1         1         6        10      0.00000000
         2         2         1         1         6        11     -0.00126404
         2         2         1         1         7         1     -0.00035436
         2         2         1         1         7         2     -0.00000000
         2         2         1         1         7         3      0.00053877
         2         2         1         1         7         4      0.00000000
         2         2         1         1         7         5      0.00000000
         2         2         1         1         7         6     -0.00003357
         2         2         1         1         7         7     -0.00045967
         2         2         1         1         7         8     -0.00000000
         2         2         1         1         7         9     -0.00000000
         2         2         1         1         7        10     -0.00000000
         2         2         1         1         7        11     -0.00002674
         2         2         1         1         8         1     -0.00000000
         2         2         1         1         8         2      0.00000000
         2         2         1         1         8         3     -0.00000000
         2         2         1         1         8         4     -0.00000000
         2         2         1         1         8         5     -0.00000000
         2         2         1         1         8         6     -0.00000000
         2         2         1         1         8         7     -0.00000000
         2         2         1         1         8         8     -0.00000085
         2         2         1         1         8         9      0.00000000
         2         2         1         1         8        10     -0.00000000
         2         2         1         1         8        11      0.00000000
         2         2         1         1         9         1     -0.00000000
         2         2         1         1         9         2      0.00000000
         2         2         1         1         9         3     -0.00000000
         2         2         1         1         9         4     -0.00000000
         2         2         1         1         9         5     -0.00000000
         2         2         1         1         9         6     -0.00000000
         2         2         1         1         9         7     -0.00000000
         2         2         1         1         9         8      0.00000000
         2         2         1         1         9         9     -0.00000610
         2         2         1         1         9        10     -0.00000000
         2         2         1         1         9        11      0.00000000
         2         2         1         1        10         1     -0.00000000
         2         2         1         1        10         2     -0.00009419
         2         2         1         1        10         3      0.00000000
         2         2         1         1        10         4      0.00019401
         2         2         1         1        10         5      0.00012080
         2         2         1         1        10         6      0.00000000
         2         2         1         1        10         7     -0.00000000
         2         2         1         1        10         8     -0.00000000
         2         2         1         1        10         9     -0.00000000
         2         2         1         1        10        10     -0.00028623
         2         2         1         1        10        11      0.00000000
         2         2         1         1        11         1     -0.00050336
         2         2         1         1        11         2      0.00000000
         2         2         1         1        11         3      0.00056366
         2         2         1         1        11         4     -0.00000000
         2         2         1         1        11         5      0.00000000
         2         2         1         1        11         6     -0.00126404
         2         2         1         1        11         7     -0.00002674
         2         2         1         1        11         8      0.00000000
         2         2         1         1        11         9      0.00000000
         2         2         1         1        11        10      0.00000000
         2         2         1         1        11        11     -0.00301251
         2         2         2         2         1         1      0.00011718
         2         2         2         2         1         2      0.00000000
         2         2         2         2         1         3     -0.00007794
         2         2         2         2         1         4      0.00000000
         2         2         2         2         1         5      0.00008178
         2         2         2         2         1         6      0.00000000
         2         2         2         2         2         1      0.00000000
         2         2         2         2         2         2     -0.00000849
         2         2         2         2         2         3      0.00000000
         2         2         2         2         2         4     -0.00009668
         2         2         2         2         2         5     -0.00000000
         2         2         2         2         2         6     -0.00005943
         2         2         2         2         3         1     -0.00007794
         2         2         2         2         3         2      0.00000000
         2         2         2         2         3         3     -0.00057343
         2         2         2         2         3         4      0.00000000
         2         2         2         2         3         5      0.00016241
         2         2         2         2         3         6      0.00000000
         2         2         2         2         4         1      0.00000000
         2         2         2         2         4         2     -0.00009668
         2         2         2         2         4         3      0.00000000
         2         2         2         2         4         4     -0.00082160
         2         2         2         2         4         5     -0.00000000
         2         2         2         2         4         6     -0.00051685
         2         2         2         2         5         1      0.00008178
         2         2         2         2         5         2     -0.00000000
         2         2         2         2         5         3      0.00016241
         2         2         2         2         5         4     -0.00000000
         2         2         2         2         5         5     -0.00002408
         2         2         2         2         5         6     -0.00000000
         2         2         2         2         6         1      0.00000000
         2         2         2         2         6         2     -0.00005943
         2         2         2         2         6         3      0.00000000
         2         2         2         2         6         4     -0.00051685
         2         2         2         2         6         5     -0.00000000
         2         2         2         2         6         6     -0.00034406
         2         2         3         3         1         1      0.00011718
         2         2         3         3         1         2      0.00000000
         2         2         3         3         1         3     -0.00007794
         2         2         3         3         1         4      0.00000000
         2         2         3         3         1         5      0.00008178
         2         2         3         3         1         6      0.00000000
         2         2         3         3         2         1      0.00000000
         2         2         3         3         2         2     -0.00000849
         2         2         3         3         2         3      0.00000000
         2         2         3         3         2         4     -0.00009668
         2         2         3         3         2         5     -0.00000000
         2         2         3         3         2         6     -0.00005943
         2         2         3         3         3         1     -0.00007794
         2         2         3         3         3         2      0.00000000
         2         2         3         3         3         3     -0.00057343
         2         2         3         3         3         4      0.00000000
         2         2         3         3         3         5      0.00016241
         2         2         3         3         3         6      0.00000000
         2         2         3         3         4         1      0.00000000
         2         2         3         3         4         2     -0.00009668
         2         2         3         3         4         3      0.00000000
         2         2         3         3         4         4     -0.00082160
         2         2         3         3         4         5     -0.00000000
         2         2         3         3         4         6     -0.00051685
         2         2         3         3         5         1      0.00008178
         2         2         3         3         5         2     -0.00000000
         2         2         3         3         5         3      0.00016241
         2         2         3         3         5         4     -0.00000000
         2         2         3         3         5         5     -0.00002408
         2         2         3         3         5         6     -0.00000000
         2         2         3         3         6         1      0.00000000
         2         2         3         3         6         2     -0.00005943
         2         2         3         3         6         3      0.00000000
         2         2         3         3         6         4     -0.00051685
         2         2         3         3         6         5     -0.00000000
         2         2         3         3         6         6     -0.00034406
         2         2         4         4         1         1     -0.00000085
         2         2         4         4         1         2      0.00000000
         2         2         4         4         2         1      0.00000000
         2         2         4         4         2         2     -0.00000610
         3         1         1         1         1         1      0.00011867
         3         1         1         1         1         2     -0.00000000
         3         1         1         1         1         3     -0.00018978
         3         1         1         1         1         4      0.00000000
         3         1         1         1         1         5     -0.00000000
         3         1         1         1         1         6     -0.00047942
         3         1         1         1         1         7      0.00034328
         3         1         1         1         1         8      0.00000000
         3         1         1         1         1         9      0.00000000
         3         1         1         1         1        10     -0.00000000
         3         1         1         1         1        11     -0.00083192
         3         1         1         1         2         1      0.00000000
         3         1         1         1         2         2     -0.00045466
         3         1         1         1         2         3     -0.00000000
         3         1         1         1         2         4      0.00091567
         3         1         1         1         2         5     -0.00089301
         3         1         1         1         2         6      0.00000000
         3         1         1         1         2         7      0.00000000
         3         1         1         1         2         8     -0.00000000
         3         1         1         1         2         9     -0.00000000
         3         1         1         1         2        10     -0.00043069
         3         1         1         1         2        11      0.00000000
         3         1         1         1         3         1     -0.00025983
         3         1         1         1         3         2      0.00000000
         3         1         1         1         3         3      0.00035408
         3         1         1         1         3         4     -0.00000000
         3         1         1         1         3         5     -0.00000000
         3         1         1         1         3         6      0.00029436
         3         1         1         1         3         7     -0.00040040
         3         1         1         1         3         8     -0.00000000
         3         1         1         1         3         9      0.00000000
         3         1         1         1         3        10     -0.00000000
         3         1         1         1         3        11      0.00059177
         3         1         1         1         4         1     -0.00000000
         3         1         1         1         4         2      0.00066061
         3         1         1         1         4         3     -0.00000000
         3         1         1         1         4         4     -0.00133670
         3         1         1         1         4         5      0.00134829
         3         1         1         1         4         6     -0.00000000
         3         1         1         1         4         7     -0.00000000
         3         1         1         1         4         8      0.00000000
         3         1         1         1         4         9      0.00000000
         3         1         1         1         4        10      0.00072816
         3         1         1         1         4        11     -0.00000000
         3         1         1         1         5         1     -0.00000000
         3         1         1         1         5         2     -0.00035968
         3         1         1         1         5         3     -0.00000000
         3         1         1         1         5         4      0.00075905
         3         1         1         1         5         5     -0.00052839
         3         1         1         1         5         6     -0.00000000
         3         1         1         1         5         7     -0.00000000
         3         1         1         1         5         8      0.00000000
         3         1         1         1         5         9     -0.00000000
         3         1         1         1         5        10     -0.00034659
         3         1         1         1         5        11     -0.00000000
         3         1         1         1         6         1     -0.00018505
         3         1         1         1         6         2     -0.00000000
         3         1         1         1         6         3      0.00017574
         3         1         1         1         6         4     -0.00000000
         3         1         1         1         6         5     -0.00000000
         3         1         1         1         6         6     -0.00080710
         3         1         1         1         6         7      0.00015643
         3         1         1         1         6         8     -0.00000000
         3         1         1         1         6         9      0.00000000
         3         1         1         1         6        10     -0.00000000
         3         1         1         1         6        11     -0.00124988
         3         1         1         1         7         1      0.00033256
         3         1         1         1         7         2      0.00000000
         3         1         1         1         7         3     -0.00038592
         3         1         1         1         7         4     -0.00000000
         3         1         1         1         7         5     -0.00000000
         3         1         1         1         7         6      0.00035993
         3         1         1         1         7         7      0.00014967
         3         1         1         1         7         8     -0.00000000
         3         1         1         1         7         9      0.00000000
         3         1         1         1         7        10     -0.00000000
         3         1         1         1         7        11      0.00030272
         3         1         1         1         8         1      0.00000000
         3         1         1         1         8         2     -0.00000000
         3         1         1         1         8         3     -0.00000000
         3         1         1         1         8         4      0.00000000
         3         1         1         1         8         5      0.00000000
         3         1         1         1         8         6     -0.00000000
         3         1         1         1         8         7     -0.00000000
         3         1         1         1         8         8     -0.00019064
         3         1         1         1         8         9      0.00000000
         3         1         1         1         8        10      0.00000000
         3         1         1         1         8        11      0.00000000
         3         1         1         1         9         1      0.00000000
         3         1         1         1         9         2      0.00000000
         3         1         1         1         9         3      0.00000000
         3         1         1         1         9         4     -0.00000000
         3         1         1         1         9         5      0.00000000
         3         1         1         1         9         6      0.00000000
         3         1         1         1         9         7      0.00000000
         3         1         1         1         9         8      0.00000000
         3         1         1         1         9         9     -0.00014814
         3         1         1         1         9        10     -0.00000000
         3         1         1         1         9        11      0.00000000
         3         1         1         1        10         1      0.00000000
         3         1         1         1        10         2     -0.00041504
         3         1         1         1        10         3     -0.00000000
         3         1         1         1        10         4      0.00086124
         3         1         1         1        10         5     -0.00089223
         3         1         1         1        10         6      0.00000000
         3         1         1         1        10         7     -0.00000000
         3         1         1         1        10         8      0.00000000
         3         1         1         1        10         9     -0.00000000
         3         1         1         1        10        10     -0.00060385
         3         1         1         1        10        11      0.00000000
         3         1         1         1        11         1     -0.00019820
         3         1         1         1        11         2     -0.00000000
         3         1         1         1        11         3      0.00016315
         3         1         1         1        11         4     -0.00000000
         3         1         1         1        11         5      0.00000000
         3         1         1         1        11         6     -0.00089763
         3         1         1         1        11         7      0.00005583
         3         1         1         1        11         8      0.00000000
         3         1         1         1        11         9      0.00000000
         3         1         1         1        11        10      0.00000000
         3         1         1         1        11        11     -0.00128958
         3         1         2         2         1         1     -0.00046653
         3         1         2         2         1         2      0.00000000
         3         1         2         2         1         3     -0.00117049
         3         1         2         2         1         4      0.00000000
         3         1         2         2         1         5      0.00002314
         3         1         2         2         1         6      0.00000000
         3         1         2         2         2         1      0.00000000
         3         1         2         2         2         2     -0.00008567
         3         1         2         2         2         3     -0.00000000
         3         1         2         2         2         4     -0.00055177
         3         1         2         2         2         5      0.00000000
         3         1         2         2         2         6     -0.00027047
         3         1         2         2         3         1     -0.00067974
         3         1         2         2         3         2      0.00000000
         3         1         2         2         3         3     -0.00185033
         3         1         2         2         3         4      0.00000000
         3         1         2         2         3         5      0.00007673
         3         1         2         2         3         6      0.00000000
         3         1         2         2         4         1      0.00000000
         3         1         2         2         4         2     -0.00025393
         3         1         2         2         4         3      0.00000000
         3         1         2         2         4         4     -0.00165871
         3         1         2         2         4         5     -0.00000000
         3         1         2         2         4         6     -0.00090085
         3         1         2         2         5         1     -0.00024669
         3         1         2         2         5         2      0.00000000
         3         1         2         2         5         3     -0.00048725
         3         1         2         2         5         4      0.00000000
         3         1         2         2         5         5     -0.00024466
         3         1         2         2         5         6      0.00000000
         3         1         2         2         6         1      0.00000000
         3         1         2         2         6         2     -0.00011169
         3         1         2         2         6         3      0.00000000
         3         1         2         2         6         4     -0.00078775
         3         1         2         2         6         5     -0.00000000
         3         1         2         2         6         6     -0.00059534
         3         1         3         3         1         1     -0.00046653
         3         1         3         3         1         2      0.00000000
         3         1         3         3         1         3     -0.00117049
         3         1         3         3         1         4      0.00000000
         3         1         3         3         1         5      0.00002314
         3         1         3         3         1         6      0.00000000
         3         1         3         3         2         1      0.00000000
         3         1         3         3         2         2     -0.00008567
         3         1         3         3         2         3     -0.00000000
         3         1         3         3         2         4     -0.00055177
         3         1         3         3         2         5      0.00000000
         3         1         3         3         2         6     -0.00027047
         3         1         3         3         3         1     -0.00067974
         3         1         3         3         3         2      0.00000000
         3         1         3         3         3         3     -0.00185033
         3         1         3         3         3         4      0.00000000
         3         1         3         3         3         5      0.00007673
         3         1         3         3         3         6      0.00000000
         3         1         3         3         4         1      0.00000000
         3         1         3         3         4         2     -0.00025393
         3         1         3         3         4         3      0.00000000
         3         1         3         3         4         4     -0.00165871
         3         1         3         3         4         5     -0.00000000
         3         1         3         3         4         6     -0.00090085
         3         1         3         3         5         1     -0.00024669
         3         1         3         3         5         2      0.00000000
         3         1         3         3         5         3     -0.00048725
         3         1         3         3         5         4      0.00000000
         3         1         3         3         5         5     -0.00024466
         3         1         3         3         5         6      0.00000000
[...]
         3         2         3         3         3         2     -0.00027207
         3         2         3         3         3         3     -0.00000000
         3         2         3         3         3         4     -0.00183577
         3         2         3         3         3         5      0.00000000
         3         2         3         3         3         6     -0.00113633
         3         2         3         3         4         1     -0.00044846
         3         2         3         3         4         2      0.00000000
         3         2         3         3         4         3     -0.00147276
         3         2         3         3         4         4     -0.00000000
         3         2         3         3         4         5      0.00029232
         3         2         3         3         4         6     -0.00000000
         3         2         3         3         5         1     -0.00000000
         3         2         3         3         5         2     -0.00004148
         3         2         3         3         5         3     -0.00000000
         3         2         3         3         5         4     -0.00031256
         3         2         3         3         5         5      0.00000000
         3         2         3         3         5         6     -0.00039941
         3         2         3         3         6         1     -0.00023923
         3         2         3         3         6         2     -0.00000000
         3         2         3         3         6         3     -0.00075957
         3         2         3         3         6         4     -0.00000000
         3         2         3         3         6         5      0.00000113
         3         2         3         3         6         6     -0.00000000
         3         2         4         4         1         1     -0.00000000
         3         2         4         4         1         2     -0.00018373
         3         2         4         4         2         1     -0.00013477
         3         2         4         4         2         2     -0.00000000
         3         3         1         1         1         1     -0.07652062
         3         3         1         1         1         2      0.00000000
         3         3         1         1         1         3      0.05565811
         3         3         1         1         1         4     -0.00000000
         3         3         1         1         1         5     -0.00000000
         3         3         1         1         1         6     -0.00304038
         3         3         1         1         1         7     -0.03139343
         3         3         1         1         1         8      0.00000000
         3         3         1         1         1         9      0.00000000
         3         3         1         1         1        10     -0.00000000
         3         3         1         1         1        11      0.00697824
         3         3         1         1         2         1      0.00000000
         3         3         1         1         2         2     -0.04945476
         3         3         1         1         2         3     -0.00000000
         3         3         1         1         2         4      0.05626670
         3         3         1         1         2         5     -0.00728369
         3         3         1         1         2         6      0.00000000
         3         3         1         1         2         7      0.00000000
         3         3         1         1         2         8      0.00000000
         3         3         1         1         2         9     -0.00000000
         3         3         1         1         2        10     -0.01902233
         3         3         1         1         2        11      0.00000000
         3         3         1         1         3         1      0.05565811
         3         3         1         1         3         2     -0.00000000
         3         3         1         1         3         3     -0.04199193
         3         3         1         1         3         4      0.00000000
         3         3         1         1         3         5     -0.00000000
         3         3         1         1         3         6      0.00170514
         3         3         1         1         3         7      0.02536194
         3         3         1         1         3         8     -0.00000000
         3         3         1         1         3         9      0.00000000
         3         3         1         1         3        10     -0.00000000
         3         3         1         1         3        11     -0.00644843
         3         3         1         1         4         1     -0.00000000
         3         3         1         1         4         2      0.05626670
         3         3         1         1         4         3      0.00000000
         3         3         1         1         4         4     -0.07085483
         3         3         1         1         4         5      0.00439672
         3         3         1         1         4         6     -0.00000000
         3         3         1         1         4         7     -0.00000000
         3         3         1         1         4         8      0.00000000
         3         3         1         1         4         9      0.00000000
         3         3         1         1         4        10      0.02546720
         3         3         1         1         4        11     -0.00000000
         3         3         1         1         5         1     -0.00000000
         3         3         1         1         5         2     -0.00728369
         3         3         1         1         5         3     -0.00000000
         3         3         1         1         5         4      0.00439672
         3         3         1         1         5         5     -0.00459892
         3         3         1         1         5         6      0.00000000
         3         3         1         1         5         7     -0.00000000
         3         3         1         1         5         8     -0.00000000
         3         3         1         1         5         9     -0.00000000
         3         3         1         1         5        10     -0.00182685
         3         3         1         1         5        11      0.00000000
         3         3         1         1         6         1     -0.00304038
         3         3         1         1         6         2      0.00000000
         3         3         1         1         6         3      0.00170514
         3         3         1         1         6         4     -0.00000000
         3         3         1         1         6         5      0.00000000
         3         3         1         1         6         6     -0.00053688
         3         3         1         1         6         7     -0.00022483
         3         3         1         1         6         8     -0.00000000
         3         3         1         1         6         9      0.00000000
         3         3         1         1         6        10     -0.00000000
         3         3         1         1         6        11     -0.00009519
         3         3         1         1         7         1     -0.03139343
         3         3         1         1         7         2      0.00000000
         3         3         1         1         7         3      0.02536194
         3         3         1         1         7         4     -0.00000000
         3         3         1         1         7         5     -0.00000000
         3         3         1         1         7         6     -0.00022483
         3         3         1         1         7         7     -0.01833849
         3         3         1         1         7         8     -0.00000000
         3         3         1         1         7         9      0.00000000
         3         3         1         1         7        10     -0.00000000
         3         3         1         1         7        11      0.00599881
         3         3         1         1         8         1      0.00000000
         3         3         1         1         8         2      0.00000000
         3         3         1         1         8         3     -0.00000000
         3         3         1         1         8         4      0.00000000
         3         3         1         1         8         5     -0.00000000
         3         3         1         1         8         6     -0.00000000
         3         3         1         1         8         7     -0.00000000
         3         3         1         1         8         8     -0.00635639
         3         3         1         1         8         9     -0.00000000
         3         3         1         1         8        10     -0.00000000
         3         3         1         1         8        11     -0.00000000
         3         3         1         1         9         1      0.00000000
         3         3         1         1         9         2     -0.00000000
         3         3         1         1         9         3      0.00000000
         3         3         1         1         9         4      0.00000000
         3         3         1         1         9         5     -0.00000000
         3         3         1         1         9         6      0.00000000
         3         3         1         1         9         7      0.00000000
         3         3         1         1         9         8     -0.00000000
         3         3         1         1         9         9     -0.00201184
         3         3         1         1         9        10     -0.00000000
         3         3         1         1         9        11     -0.00000000
         3         3         1         1        10         1     -0.00000000
         3         3         1         1        10         2     -0.01902233
         3         3         1         1        10         3     -0.00000000
         3         3         1         1        10         4      0.02546720
         3         3         1         1        10         5     -0.00182685
         3         3         1         1        10         6     -0.00000000
         3         3         1         1        10         7     -0.00000000
         3         3         1         1        10         8     -0.00000000
         3         3         1         1        10         9     -0.00000000
         3         3         1         1        10        10     -0.01194350
         3         3         1         1        10        11      0.00000000
         3         3         1         1        11         1      0.00697824
         3         3         1         1        11         2      0.00000000
         3         3         1         1        11         3     -0.00644843
         3         3         1         1        11         4     -0.00000000
         3         3         1         1        11         5      0.00000000
         3         3         1         1        11         6     -0.00009519
         3         3         1         1        11         7      0.00599881
         3         3         1         1        11         8     -0.00000000
         3         3         1         1        11         9     -0.00000000
         3         3         1         1        11        10      0.00000000
         3         3         1         1        11        11     -0.00355569
         3         3         2         2         1         1     -0.11873907
         3         3         2         2         1         2     -0.00000000
         3         3         2         2         1         3     -0.08400026
         3         3         2         2         1         4      0.00000000
         3         3         2         2         1         5     -0.03197063
         3         3         2         2         1         6     -0.00000000
         3         3         2         2         2         1     -0.00000000
         3         3         2         2         2         2     -0.00096445
         3         3         2         2         2         3     -0.00000000
         3         3         2         2         2         4     -0.00194514
         3         3         2         2         2         5      0.00000000
         3         3         2         2         2         6     -0.00135842
         3         3         2         2         3         1     -0.08400026
         3         3         2         2         3         2     -0.00000000
         3         3         2         2         3         3     -0.06195803
         3         3         2         2         3         4     -0.00000000
         3         3         2         2         3         5     -0.02522987
         3         3         2         2         3         6     -0.00000000
         3         3         2         2         4         1      0.00000000
         3         3         2         2         4         2     -0.00194514
         3         3         2         2         4         3     -0.00000000
         3         3         2         2         4         4     -0.00399547
         3         3         2         2         4         5      0.00000000
         3         3         2         2         4         6     -0.00266907
         3         3         2         2         5         1     -0.03197063
         3         3         2         2         5         2      0.00000000
         3         3         2         2         5         3     -0.02522987
         3         3         2         2         5         4      0.00000000
         3         3         2         2         5         5     -0.01353232
         3         3         2         2         5         6     -0.00000000
         3         3         2         2         6         1     -0.00000000
         3         3         2         2         6         2     -0.00135842
         3         3         2         2         6         3     -0.00000000
         3         3         2         2         6         4     -0.00266907
         3         3         2         2         6         5     -0.00000000
         3         3         2         2         6         6     -0.00238194
         3         3         3         3         1         1     -0.11873907
         3         3         3         3         1         2     -0.00000000
         3         3         3         3         1         3     -0.08400026
         3         3         3         3         1         4      0.00000000
         3         3         3         3         1         5     -0.03197063
         3         3         3         3         1         6     -0.00000000
         3         3         3         3         2         1     -0.00000000
         3         3         3         3         2         2     -0.00096445
         3         3         3         3         2         3     -0.00000000
         3         3         3         3         2         4     -0.00194514
         3         3         3         3         2         5      0.00000000
         3         3         3         3         2         6     -0.00135842
         3         3         3         3         3         1     -0.08400026
         3         3         3         3         3         2     -0.00000000
         3         3         3         3         3         3     -0.06195803
         3         3         3         3         3         4     -0.00000000
         3         3         3         3         3         5     -0.02522987
         3         3         3         3         3         6     -0.00000000
         3         3         3         3         4         1      0.00000000
         3         3         3         3         4         2     -0.00194514
         3         3         3         3         4         3     -0.00000000
         3         3         3         3         4         4     -0.00399547
         3         3         3         3         4         5      0.00000000
         3         3         3         3         4         6     -0.00266907
         3         3         3         3         5         1     -0.03197063
         3         3         3         3         5         2      0.00000000
         3         3         3         3         5         3     -0.02522987
         3         3         3         3         5         4      0.00000000
         3         3         3         3         5         5     -0.01353232
         3         3         3         3         5         6     -0.00000000
         3         3         3         3         6         1     -0.00000000
         3         3         3         3         6         2     -0.00135842
         3         3         3         3         6         3     -0.00000000
         3         3         3         3         6         4     -0.00266907
         3         3         3         3         6         5     -0.00000000
         3         3         3         3         6         6     -0.00238194
         3         3         4         4         1         1     -0.00635639
         3         3         4         4         1         2     -0.00000000
         3         3         4         4         2         1     -0.00000000
         3         3         4         4         2         2     -0.00201184


 RESULTS
 =======

  Reference energy                    -14.869231121669

  Correlated core orbitals:             1.1       2.1
  Orbital energies:                    -2.4475   -2.4472

  CCSD core-core energy                -0.000390525622
  CCSD core-valence energy             -0.000568785969
  CCSD valence correlation energy      -0.031085116544

  CCSD singlet pair energy             -0.031886919706
  CCSD triplet pair energy             -0.000157506694
  CCSD correlation energy              -0.032044428136

 !CCSD total energy                   -14.901275549804

 Timing summary (sec):

 STEP                 CPU(USER)    SYS     CPU(TOT)    WALL
 CCSD iterations         0.12      0.02      0.14      0.15

 Program statistics:

 Available memory in ccsd:                39999164
 Min. memory needed in ccsd:                  7205
 Max. memory used in ccsd:                    7604
 Max. memory used in cckext:                 39505 (31 integral passes)



 **********************************************************************************************************************************
 DATASETS  * FILE   NREC   LENGTH (MB)   RECORD NAMES
              1      20       30.16       500      700      610      900      950      970     1000      129      960     1100   
                                          VAR     GEOM    BASINP   SYMINP    ZMAT    AOBASIS   BASIS     P2S    ABASIS      S 
                                         1400     1410     1200     1210     1080     1600     1650     1300     1700     1380   
                                           T        V       H0       H01     AOSYM     SMH    MOLCAS    ERIS     OPER     JKOP   

              3       5       14.77       500      610      700     1000     2100   
                                          VAR    BASINP    GEOM     BASIS     RHF  

 PROGRAMS   *        TOTAL      CCSD       INT   RESTART
 CPU TIMES  *         0.57      0.20      0.18      0.02
 REAL TIME  *         0.78 SEC
 DISK USED  *        49.46 MB
 **********************************************************************************************************************************
 Molecular orbitals read from record     2100.3  Type=RHF/CANONICAL (state 1.1)
 Occupation numbers read from record     2100.3  Type=RHF/RHF (state 1.1)
 Orbital energies read from record       2100.3  Type=RHF/CANONICAL (state 1.1)
 Redundancy group numbers read from rec  2100.3  Type=RHF/RHF (state 1.1)

 CCSD/cc-pVDZ energy=    -14.901275549804

            CCSD
    -14.90127555
 **********************************************************************************************************************************
 Molpro calculation terminated
