
 Primary working directories    : /scr/yuriaoto/job.023659/molpro.U0q2Z2eKF7
 Secondary working directories  : /scr/yuriaoto/job.023659/molpro.U0q2Z2eKF7
 Wavefunction directory         : /scr/yuriaoto/job.023659/
 Main file repository           : /scr/yuriaoto/job.023659/molpro.U0q2Z2eKF7/

 id        : yuriaoto

 Nodes             nprocs
 t-rex.ufabc.int.br    1

 Using customized tuning parameters: mindgm=8; mindgv=16; mindgc=1; mindgr=1; noblas=0; minvec=7
 default implementation of scratch files=df  


 Variables initialized (933), CPU time= 0.00 sec
 ***,
 memory,40,m
 gprint,orbital,basis,civector
 gthresh,printci=0.0,thrprint=0
 file,3,wfu.dat,old
 
 {bccd,SAVEORB=2150.2,print,CC_NORM_MAX=10000.0
 thresh,printci=0.0,ENERGY=1.0E-10,COEFF=1.0E-12
 print,ref=1
 wf,2,1,0;
 }
 
 {put,xml,orbitals.xml; orbital,2150.2; nosort; novariables}
 
 Commands  initialized (760), CPU time= 0.00 sec, 617 directives.
 Default parameters read. Elapsed time= 0.03 sec

 Checking input...
 Passed
1


                                         ***  PROGRAM SYSTEM MOLPRO  ***
                                       Copyright, TTI GmbH Stuttgart, 2015
                                    Version 2019.2 linked Abr  7 2019 15:10:35


 **********************************************************************************************************************************
 LABEL *                                                                                 
  64 bit serial version                                                                  DATE: 05-Jun-20          TIME: 23:18:39  
 **********************************************************************************************************************************

 SHA1:             3a8a58c585c929645742fb5a1b7541a4ad1da699
 **********************************************************************************************************************************


 THRESHOLDS:

 ZERO    =  1.00D-12  ONEINT  =  1.00D-12  TWOINT  =  1.00D-11  PREFAC  =  1.00D-14  XXXXXX  =  1.00D-09  EORDER  =  1.00D-04
 ENERGY  =  0.00D+00  ETEST   =  0.00D+00  EDENS   =  0.00D+00  THRDEDEF=  1.00D-06  GRADIENT=  1.00D-02  STEP    =  1.00D-03
 ORBITAL =  1.00D-05  CIVEC   =  1.00D-05  COEFF   =  1.00D-04  PRINTCI =  0.00D+00  PUNCHCI =  9.90D+01  OPTGRAD =  3.00D-04
 OPTENERG=  1.00D-06  OPTSTEP =  3.00D-04  THRGRAD =  1.00D-10  COMPRESS=  1.00D-11  VARMIN  =  1.00D-07  VARMAX  =  1.00D-03
 THRDOUB =  0.00D+00  THRDIV  =  1.00D-05  THRRED  =  1.00D-07  THRPSP  =  1.00D+00  THRDC   =  1.00D-10  THRCS   =  1.00D-10
 THRNRM  =  1.00D-08  THREQ   =  0.00D+00  THRDE   =  1.00D+00  THRREF  =  1.00D-05  SPARFAC =  1.00D+00  THRDLP  =  1.00D-07
 THRDIA  =  1.00D-10  THRDLS  =  1.00D-07  THRGPS  =  0.00D+00  THRKEX  =  0.00D+00  THRDIS  =  2.00D-01  THRVAR  =  1.00D-10
 THRLOC  =  1.00D-06  THRGAP  =  1.00D-06  THRLOCT = -1.00D+00  THRGAPT = -1.00D+00  THRORB  =  1.00D-06  THRMLTP =  0.00D+00
 THRCPQCI=  1.00D-10  KEXTA   =  0.00D+00  THRCOARS=  0.00D+00  SYMTOL  =  1.00D-06  GRADTOL =  1.00D-06  THROVL  =  1.00D-08
 THRORTH =  1.00D-08  GRID    =  1.00D-06  GRIDMAX =  1.00D-03  DTMAX   =  0.00D+00  THROCCDE=  1.00D-01  THROCCDE=  1.00D-01
 THRPRINT=  0.00D+00


 Variable memory set to   40000000 words,  buffer space 



 Permanent file  3  wfu.dat  assigned.  Implementation=df    Size= 14.08 MB


 PROGRAM * RESTART 


 Reading variables from file 3

 _FNUC           =      0.00000000
 _BASIS          =    CC-PVDZ
 _NELEC          =      2.00000000
 _PROGRAM        =    RHF-SCF
 _DMX            =      0.00000000
 _DMY            =     -0.00000000
 _DMX_SCF        =      0.00000000
 _DMY_SCF        =     -0.00000000
 _DMZ_SCF        =      0.00000000
 _HOMO           =      1.10000000
 _EHOMO          =     -0.34086982
 _LUMO           =      1.20000000
 _ELUMO          =     -0.09520302
 _ENERGY         =     -0.85242437
 _ENERGY_METHOD  =    RHF
 _ENERGY_BASIS   =    cc-pVDZ
 _ENUC           =      0.20000000
 _EPS1(1:5)      =     -0.34086982     0.61305106     1.46113314     1.46277864     1.46277864
 _EPS2(1:5)      =     -0.09520302     0.67276230     1.46773963     1.46773963     1.50154450
 _IPROC_MPP      =      0.00000000
 _IPROC_MPPX     =      0.00000000
 _ORBITAL        =   2100.30000000
 _STATUS         =      1.00000000
 _DATE           =    16-Oct-19
 _LASTORB        =    RHF
 _OUTPUT         =    /scr/yuriaoto/job.022378/RHF.xml
 _PGROUP         =    Cs  
 _TIME           =    09:37:43
 R               =      5.00000000

 Geometry written to block  1 of record 700


 **********************************************************************************************************************************
 DATASETS  * FILE   NREC   LENGTH (MB)   RECORD NAMES
              3       5       14.77       500      610      700     1000     2100   
                                          VAR    BASINP    GEOM     BASIS     RHF  

 PROGRAMS   *        TOTAL   RESTART
 CPU TIMES  *         0.12      0.04
 REAL TIME  *         0.16 SEC
 DISK USED  *        26.84 MB
 **********************************************************************************************************************************


 Recomputing integrals since basis changed


 Using spherical harmonics

 Library entry H      S cc-pVDZ              selected for orbital group  1
 Library entry H      P cc-pVDZ              selected for orbital group  1


 PROGRAM * SEWARD (Integral evaluation for generally contracted gaussian basis sets)     Author: Roland Lindh, 1990

 Geometry written to block  1 of record 700

 Orientation using atomic masses  
 Molecule type: Linear
 User-specified symmetry elements: Z
 Symmetry elements: Z
 Rotational constants:     143.2419517    143.2419517      0.0000000 GHz  (calculated with average atomic masses)

 Point group  Cs  



 ATOMIC COORDINATES

 NR  ATOM    CHARGE       X              Y              Z

   1  H1      1.00    0.000000000    0.000000000   -2.500000000
   2  H2      1.00    0.000000000    0.000000000    2.500000000


 BASIS DATA

   Nr Sym  Nuc  Type         Exponents   Contraction coefficients

    1.1 A'    1  1s          13.010000     0.019685    0.000000
    2.1 A'    2  1s           1.962000     0.137977    0.000000
                              0.444600     0.478148    0.000000
                              0.122000     0.501240    1.000000
    3.1 A'    1  2px          0.727000     1.000000
              2  2px   
    4.1 A'    1  2py          0.727000     1.000000
              2  2py   
    5.1 A'    1  2pz          0.727000     1.000000
              2 -2pz   
    1.2 A"    1  1s          13.010000     0.019685    0.000000
    2.2 A"    2 -1s           1.962000     0.137977    0.000000
                              0.444600     0.478148    0.000000
                              0.122000     0.501240    1.000000
    3.2 A"    1  2pz          0.727000     1.000000
              2  2pz   
    4.2 A"    1  2px          0.727000     1.000000
              2 -2px   
    5.2 A"    1  2py          0.727000     1.000000
              2 -2py   

 NUCLEAR CHARGE:                    2
 NUMBER OF PRIMITIVE AOS:          14
 NUMBER OF SYMMETRY AOS:           14
 NUMBER OF CONTRACTIONS:           10   (    5A'  +    5A"  )
 NUMBER OF CORE ORBITALS:           0   (    0A'  +    0A"  )
 NUMBER OF VALENCE ORBITALS:        2   (    1A'  +    1A"  )


 NUCLEAR REPULSION ENERGY    0.20000000

 EXTRA SYMMETRY OF AOS IN SYMMETRY 1:   1 1 2 3 1
 EXTRA SYMMETRY OF AOS IN SYMMETRY 2:   1 1 1 2 3

 Eigenvalues of metric

         1 0.104E+00 0.999E+00 0.100E+01 0.100E+01 0.221E+01
         2 0.832E-01 0.993E+00 0.100E+01 0.100E+01 0.161E+01


 Contracted 2-electron integrals neglected if value below      1.0D-11
 AO integral compression algorithm  1   Integral accuracy      1.0D-11

     0.262 MB (compressed) written to integral file ( 62.3%)


 NUMBER OF SORTED TWO-ELECTRON INTEGRALS:        915.     BUFFER LENGTH:  32768
 NUMBER OF SEGMENTS:   1  SEGMENT LENGTH:        915      RECORD LENGTH: 524288

 Memory used in sort:       0.56 MW

 SORT1 READ        2408. AND WROTE         347. INTEGRALS IN      1 RECORDS. CPU TIME:     0.00 SEC, REAL TIME:     0.00 SEC
 SORT2 READ         347. AND WROTE         915. INTEGRALS IN      1 RECORDS. CPU TIME:     0.01 SEC, REAL TIME:     0.00 SEC

 FILE SIZES:   FILE 1:    30.2 MBYTE,  FILE 4:     4.2 MBYTE,   TOTAL:     34.4 MBYTE

 OPERATOR DM      FOR CENTER  0  COORDINATES:    0.000000    0.000000    0.000000


 **********************************************************************************************************************************
 DATASETS  * FILE   NREC   LENGTH (MB)   RECORD NAMES
              1      19       29.94       500      700      610      900      950      970     1000      129      960     1100   
                                          VAR     GEOM    BASINP   SYMINP    ZMAT    AOBASIS   BASIS     P2S    ABASIS      S 
                                         1400     1410     1200     1210     1080     1600     1650     1300     1700   
                                           T        V       H0       H01     AOSYM     SMH    MOLCAS    ERIS     OPER   

              3       5       14.77       500      610      700     1000     2100   
                                          VAR    BASINP    GEOM     BASIS     RHF  

 PROGRAMS   *        TOTAL       INT   RESTART
 CPU TIMES  *         0.28      0.15      0.04
 REAL TIME  *         0.41 SEC
 DISK USED  *        49.42 MB
 **********************************************************************************************************************************


 PROGRAM * BCCD (Closed-shell Brueckner coupled-cluster)     Authors: C. Hampel, H.-J. Werner, 1991, M. Deegan, P.J. Knowles, 1992


 Input parameters for THRESH:

 ENERGY   =    1.00D-10
 COEFF    =    1.00D-12
 PRINTCI  =    0.000000
 THRPRINT =    0.000000

 Convergence thresholds:  THRVAR = 1.00D-24  THRDEN = 1.00D-10

 Number of closed-shell orbitals:   1 (   1   0 )
 Number of external orbitals:       9 (   4   5 )

 Molecular orbitals read from record     2100.3  Type=RHF/CANONICAL (state 1.1)

 Number of N-1 electron functions:               1
 Number of N-2 electron functions:               1
 Number of singly external CSFs:                 4
 Number of doubly external CSFs:                25
 Total number of CSFs:                          30

 Brueckner orbitals will be computed and saved on record    2150.2

 Length of J-op  integral file:               0.00 MB
 Length of K-op  integral file:               0.04 MB

 Integral transformation finished. Total CPU:   0.00 sec, npass=  1  Memory used:   0.07 MW

 Reference energy:                     -0.85242437

 MP2 singlet pair energy:              -0.07826033
 MP2 triplet pair energy:               0.00000000
 MP2 correlation energy:               -0.07826033
 MP2 total energy:                     -0.93068469

 SCS-MP2 correlation energy:           -0.09391239   (PS=  1.200000  PT=  0.333333)
 SCS-MP2 total energy:                 -0.94633676

 ITER.      SQ.NORM     CORR.ENERGY   TOTAL ENERGY   ENERGY CHANGE        DEN1      VAR(S)    VAR(P)  DIIS     TIME  TIME/IT
   1      1.26455168    -0.13289974    -0.98532410    -0.05463941    -0.02343615  0.41D-02  0.22D-01  1  1     0.02     0.00
   2      1.72839935    -0.15524181    -1.00446737    -0.02234208    -0.07095793  0.11D-02  0.12D-01  2  2     0.02     0.00
   3      1.58290286    -0.16199173    -0.99164154    -0.00674991     0.00596589  0.42D-04  0.18D-02  3  3     0.03     0.00
   4      1.60459455    -0.16713937    -1.00252844    -0.00514764    -0.00062427  0.30D-05  0.27D-04  4  4     0.03     0.00
   5      1.59696098    -0.16689756    -1.00110826     0.00024181     0.00033158  0.81D-08  0.40D-05  5  5     0.03     0.00
   6      1.59871590    -0.16719939    -1.00161973    -0.00030182    -0.00014035  0.52D-08  0.33D-06  6  6     0.04     0.00
   7      1.59868516    -0.16714286    -1.00150022     0.00005653    -0.00002683  0.26D-10  0.33D-09  6  3     0.04     0.00
   8      1.59865893    -0.16714695    -1.00150308    -0.00000409     0.00000269  0.37D-11  0.16D-10  6  1     0.04     0.00
   9      1.59867152    -0.16714711    -1.00150464    -0.00000016    -0.00000091  0.83D-12  0.16D-10  6  2     0.04     0.00
  10      1.59867151    -0.16714687    -1.00150384     0.00000024    -0.00000028  0.50D-16  0.51D-15  6  4     0.05     0.00
  11      1.59867150    -0.16714687    -1.00150384    -0.00000000     0.00000000  0.30D-17  0.22D-16  6  5     0.05     0.00
  12      1.59867149    -0.16714687    -1.00150384    -0.00000000     0.00000000  0.14D-18  0.39D-18  6  3     0.05     0.00
  13      1.59867149    -0.16714687    -1.00150384     0.00000000     0.00000000  0.23D-21  0.17D-20  6  6     0.05     0.00
  14      1.59867149    -0.16714687    -1.00150384     0.00000000     0.00000000  0.60D-23  0.66D-22  6  1     0.06     0.00
  15      1.59867149    -0.16714687    -1.00150384    -0.00000000     0.00000000  0.40D-25  0.25D-24  6  2     0.06     0.00

 Norm of t1 vector:      0.00000000      S-energy:    -0.00000000      T1 diagnostic:  0.00000000

 Orbital rotation generators (print threshold =  0.000E+00):

         I         SYM. A    A   T(IA)

         1         1         1     -0.10704841
         1         1         2     -0.00564056
         1         1         3     -0.00000000
         1         1         4     -0.00000000

 Doubles amplitudes (print threshold =  0.000E+00):

         I         J         SYM. A    SYM. B    A         B      T(IJ, AB)

         1         1         1         1         1         1     -0.00314977
         1         1         1         1         1         2      0.00021854
         1         1         1         1         1         3     -0.00000000
         1         1         1         1         1         4      0.00000000
         1         1         1         1         2         1      0.00021854
         1         1         1         1         2         2     -0.00543391
         1         1         1         1         2         3     -0.00000000
         1         1         1         1         2         4     -0.00000000
         1         1         1         1         3         1     -0.00000000
         1         1         1         1         3         2     -0.00000000
         1         1         1         1         3         3     -0.00370141
         1         1         1         1         3         4     -0.00000000
         1         1         1         1         4         1      0.00000000
         1         1         1         1         4         2     -0.00000000
         1         1         1         1         4         3     -0.00000000
         1         1         1         1         4         4     -0.00370141
         1         1         2         2         1         1     -0.76037872
         1         1         2         2         1         2      0.10033578
         1         1         2         2         1         3     -0.00000000
         1         1         2         2         1         4      0.00000000
         1         1         2         2         1         5     -0.00557334
         1         1         2         2         2         1      0.10033578
         1         1         2         2         2         2     -0.01501528
         1         1         2         2         2         3     -0.00000000
         1         1         2         2         2         4      0.00000000
         1         1         2         2         2         5      0.00067964
         1         1         2         2         3         1     -0.00000000
         1         1         2         2         3         2     -0.00000000
         1         1         2         2         3         3     -0.00146477
         1         1         2         2         3         4      0.00000000
         1         1         2         2         3         5     -0.00000000
         1         1         2         2         4         1      0.00000000
         1         1         2         2         4         2      0.00000000
         1         1         2         2         4         3      0.00000000
         1         1         2         2         4         4     -0.00146477
         1         1         2         2         4         5      0.00000000
         1         1         2         2         5         1     -0.00557334
         1         1         2         2         5         2      0.00067964
         1         1         2         2         5         3     -0.00000000
         1         1         2         2         5         4      0.00000000
         1         1         2         2         5         5     -0.00118897


 RESULTS
 =======

  Reference energy                     -0.834356973966
  BCCD singlet pair energy             -0.167146867684
  BCCD triplet pair energy              0.000000000000
  BCCD correlation energy              -0.167146867684

 !BCCD total energy                    -1.001503841650

 Approximate expectation values using Brueckner orbitals

 !BCCD(ref) STATE  1.1 Dipole momen    -0.00000000     0.00000000     0.00000000
 Dipole moment /Debye                  -0.00000000     0.00000000     0.00000000

 Brueckner orbitals saved on record           2150.2 (orbital set 1)
 Brueckner density (ref) saved on record      2150.2 (density set 1)

 Brueckner orbitals
 ==================

   Orb     Occ           Coefficients

                         1 1s      1 1s      1 2px     1 2py     1 2pz  

   1.1    2.0000000    0.945195  0.012763  0.000000 -0.000000  0.000099

 Timing summary (sec):

 STEP                 CPU(USER)    SYS     CPU(TOT)    WALL
 Transformation          0.03      0.01      0.04      0.05
 CCSD iterations         0.07      0.03      0.10      0.08

 Program statistics:

 Available memory in ccsd:                39999196
 Min. memory needed in ccsd:                   810
 Max. memory used in ccsd:                     810
 Max. memory used in cckext:                 33341 (15 integral passes)



 **********************************************************************************************************************************
 DATASETS  * FILE   NREC   LENGTH (MB)   RECORD NAMES
              1      20       29.94       500      700      610      900      950      970     1000      129      960     1100   
                                          VAR     GEOM    BASINP   SYMINP    ZMAT    AOBASIS   BASIS     P2S    ABASIS      S 
                                         1400     1410     1200     1210     1080     1600     1650     1300     1700     1380   
                                           T        V       H0       H01     AOSYM     SMH    MOLCAS    ERIS     OPER     JKOP   

              2       4        2.74       700     1000      520     2150   
                                         GEOM     BASIS   MCVARS    BCCD   

              3       5       14.77       500      610      700     1000     2100   
                                          VAR    BASINP    GEOM     BASIS     RHF  

 PROGRAMS   *        TOTAL      BCCD       INT   RESTART
 CPU TIMES  *         0.42      0.15      0.15      0.04
 REAL TIME  *         0.60 SEC
 DISK USED  *        49.42 MB
 **********************************************************************************************************************************

 Dump information in style XML to orbitals.xml                                                                    

 Variables will not be exported.
 Molecular orbitals read from record     2150.2  Type=BCCD/BRUECKNER (state 1.1)
 Occupation numbers read from record     2150.2  Type=BCCD/BRUECKNER (state 1.1)

 No orbital energies found for orbital set 0

 No redundancy group numbers found for orbital set 0

 **********************************************************************************************************************************

 BCCD/cc-pVDZ energy=     -1.001503841650

            BCCD
     -1.00150384
 **********************************************************************************************************************************
 Molpro calculation terminated
