
 Primary working directories    : /scr/yuriaoto/job.023717/molpro.kLSYMpMJWC
 Secondary working directories  : /scr/yuriaoto/job.023717/molpro.kLSYMpMJWC
 Wavefunction directory         : /scr/yuriaoto/job.023717/
 Main file repository           : /scr/yuriaoto/job.023717/molpro.kLSYMpMJWC/

 id        : yuriaoto

 Nodes             nprocs
 t-rex.ufabc.int.br    1

 Using customized tuning parameters: mindgm=8; mindgv=16; mindgc=1; mindgr=1; noblas=0; minvec=7
 default implementation of scratch files=df  


 Variables initialized (933), CPU time= 0.00 sec
 ***,
 memory,40,m
 gprint,orbital,basis,civector
 gthresh,printci=0.0,thrprint=0
 file,3,wfu.dat,old
 
 {bccd,SAVEORB=2150.2,print,CC_NORM_MAX=10.0
 thresh,printci=0.0,ENERGY=1.0E-10,COEFF=1.0E-12
 print,ref=1
 core,0
 wf,6,1,0;
 }
 
 {put,xml,orbitals.xml; orbital,2150.2; nosort; novariables}
 
 Commands  initialized (760), CPU time= 0.01 sec, 617 directives.
 Default parameters read. Elapsed time= 0.04 sec

 Checking input...
 Passed
1


                                         ***  PROGRAM SYSTEM MOLPRO  ***
                                       Copyright, TTI GmbH Stuttgart, 2015
                                    Version 2019.2 linked Abr  7 2019 15:10:35


 **********************************************************************************************************************************
 LABEL *                                                                                 
  64 bit serial version                                                                  DATE: 05-Jun-20          TIME: 23:38:41  
 **********************************************************************************************************************************

 SHA1:             3a8a58c585c929645742fb5a1b7541a4ad1da699
 **********************************************************************************************************************************


 THRESHOLDS:

 ZERO    =  1.00D-12  ONEINT  =  1.00D-12  TWOINT  =  1.00D-11  PREFAC  =  1.00D-14  XXXXXX  =  1.00D-09  EORDER  =  1.00D-04
 ENERGY  =  0.00D+00  ETEST   =  0.00D+00  EDENS   =  0.00D+00  THRDEDEF=  1.00D-06  GRADIENT=  1.00D-02  STEP    =  1.00D-03
 ORBITAL =  1.00D-05  CIVEC   =  1.00D-05  COEFF   =  1.00D-04  PRINTCI =  0.00D+00  PUNCHCI =  9.90D+01  OPTGRAD =  3.00D-04
 OPTENERG=  1.00D-06  OPTSTEP =  3.00D-04  THRGRAD =  1.00D-10  COMPRESS=  1.00D-11  VARMIN  =  1.00D-07  VARMAX  =  1.00D-03
 THRDOUB =  0.00D+00  THRDIV  =  1.00D-05  THRRED  =  1.00D-07  THRPSP  =  1.00D+00  THRDC   =  1.00D-10  THRCS   =  1.00D-10
 THRNRM  =  1.00D-08  THREQ   =  0.00D+00  THRDE   =  1.00D+00  THRREF  =  1.00D-05  SPARFAC =  1.00D+00  THRDLP  =  1.00D-07
 THRDIA  =  1.00D-10  THRDLS  =  1.00D-07  THRGPS  =  0.00D+00  THRKEX  =  0.00D+00  THRDIS  =  2.00D-01  THRVAR  =  1.00D-10
 THRLOC  =  1.00D-06  THRGAP  =  1.00D-06  THRLOCT = -1.00D+00  THRGAPT = -1.00D+00  THRORB  =  1.00D-06  THRMLTP =  0.00D+00
 THRCPQCI=  1.00D-10  KEXTA   =  0.00D+00  THRCOARS=  0.00D+00  SYMTOL  =  1.00D-06  GRADTOL =  1.00D-06  THROVL  =  1.00D-08
 THRORTH =  1.00D-08  GRID    =  1.00D-06  GRIDMAX =  1.00D-03  DTMAX   =  0.00D+00  THROCCDE=  1.00D-01  THROCCDE=  1.00D-01
 THRPRINT=  0.00D+00


 Variable memory set to   40000000 words,  buffer space 



 Permanent file  3  wfu.dat  assigned.  Implementation=df    Size= 14.09 MB


 PROGRAM * RESTART 


 Reading variables from file 3

 _FNUC           =      0.00000000
 _BASIS          =    6-31G
 _NELEC          =      6.00000000
 _PROGRAM        =    RHF-SCF
 _DMX            =      0.00000000
 _DMY            =      0.00000000
 _DMZ            =     -0.00000000
 _DMX_SCF        =      0.00000000
 _DMY_SCF        =      0.00000000
 _DMZ_SCF        =     -0.00000000
 _HOMO           =      3.10000000
 _EHOMO          =     -0.17851751
 _LUMO           =      4.10000000
 _ELUMO          =      0.01777237
 _ENERGY         =    -14.86544674
 _ENERGY_METHOD  =    RHF
 _ENERGY_BASIS   =    6-31G
 _ENUC           =      1.80000000
 _EPS1(1:18)     =     -2.44083704    -2.44048610    -0.17851751     0.01777237     0.04562579     0.04562579
                        0.06347954     0.09250721     0.09250721     0.13971383     0.19419332     0.20818018
                        0.20818018     0.22544142     0.26575139     0.27049342     0.27049342     0.54809004
 _IPROC_MPP      =      0.00000000
 _IPROC_MPPX     =      0.00000000
 _ORBITAL        =   2100.30000000
 _STATUS         =      1.00000000
 _DATE           =    21-Oct-19
 _LASTORB        =    RHF
 _OUTPUT         =    /scr/yuriaoto/job.022406/RHF.xml
 _PGROUP         =    C1  
 _TIME           =    10:34:13
 R               =      5.00000000

 Geometry written to block  1 of record 700


 **********************************************************************************************************************************
 DATASETS  * FILE   NREC   LENGTH (MB)   RECORD NAMES
              3       5       14.77       500      610      700     1000     2100   
                                          VAR    BASINP    GEOM     BASIS     RHF  

 PROGRAMS   *        TOTAL   RESTART
 CPU TIMES  *         0.11      0.01
 REAL TIME  *         0.15 SEC
 DISK USED  *        26.84 MB
 **********************************************************************************************************************************


 Recomputing integrals since basis changed


 Using spherical harmonics

 Library entry LI     S 6-31G                selected for orbital group  1
 Library entry LI     P 6-31G                selected for orbital group  1


 PROGRAM * SEWARD (Integral evaluation for generally contracted gaussian basis sets)     Author: Roland Lindh, 1990

 Geometry written to block  1 of record 700

 Orientation using atomic masses  
 Molecule type: Linear
 Rotational constants:      20.8009354     20.8009354      0.0000000 GHz  (calculated with average atomic masses)

 Point group  C1  



 ATOMIC COORDINATES

 NR  ATOM    CHARGE       X              Y              Z

   1  LI1     3.00    0.000000000    0.000000000   -2.500000000
   2  LI2     3.00    0.000000000    0.000000000    2.500000000

 Bond lengths in Bohr (Angstrom)

 1-2  5.000000000
     ( 2.645886055)


 BASIS DATA

   Nr Sym  Nuc  Type         Exponents   Contraction coefficients

    1.1 A     1  1s         642.418910     0.002143
                             96.798515     0.016209
                             22.091121     0.077316
                              6.201070     0.245786
                              1.935118     0.470189
                              0.636736     0.345471
    2.1 A     1  1s           2.324918    -0.035092
                              0.632430    -0.191233
                              0.079053     1.083988
    3.1 A     1  1s           0.035962     1.000000
    4.1 A     1  2px          2.324918     0.008942
                              0.632430     0.141009
                              0.079053     0.945364
    5.1 A     1  2py          2.324918     0.008942
                              0.632430     0.141009
                              0.079053     0.945364
    6.1 A     1  2pz          2.324918     0.008942
                              0.632430     0.141009
                              0.079053     0.945364
    7.1 A     1  2px          0.035962     1.000000
    8.1 A     1  2py          0.035962     1.000000
    9.1 A     1  2pz          0.035962     1.000000
   10.1 A     2  1s         642.418910     0.002143
                             96.798515     0.016209
                             22.091121     0.077316
                              6.201070     0.245786
                              1.935118     0.470189
                              0.636736     0.345471
   11.1 A     2  1s           2.324918    -0.035092
                              0.632430    -0.191233
                              0.079053     1.083988
   12.1 A     2  1s           0.035962     1.000000
   13.1 A     2  2px          2.324918     0.008942
                              0.632430     0.141009
                              0.079053     0.945364
   14.1 A     2  2py          2.324918     0.008942
                              0.632430     0.141009
                              0.079053     0.945364
   15.1 A     2  2pz          2.324918     0.008942
                              0.632430     0.141009
                              0.079053     0.945364
   16.1 A     2  2px          0.035962     1.000000
   17.1 A     2  2py          0.035962     1.000000
   18.1 A     2  2pz          0.035962     1.000000

 NUCLEAR CHARGE:                    6
 NUMBER OF PRIMITIVE AOS:          44
 NUMBER OF SYMMETRY AOS:           44
 NUMBER OF CONTRACTIONS:           18   (   18A   )
 NUMBER OF CORE ORBITALS:           2   (    2A   )
 NUMBER OF VALENCE ORBITALS:        8   (    8A   )


 NUCLEAR REPULSION ENERGY    1.80000000

 EXTRA SYMMETRY OF AOS IN SYMMETRY 1:   1 1 1 2 3 1 2 3 1 1   1 1 2 3 1 2 3 1

 Eigenvalues of metric

         1 0.422E-02 0.103E+00 0.108E+00 0.108E+00 0.112E+00 0.166E+00 0.180E+00 0.252E+00


 Contracted 2-electron integrals neglected if value below      1.0D-11
 AO integral compression algorithm  1   Integral accuracy      1.0D-11

     0.262 MB (compressed) written to integral file ( 49.2%)


 NUMBER OF SORTED TWO-ELECTRON INTEGRALS:      14706.     BUFFER LENGTH:  32768
 NUMBER OF SEGMENTS:   1  SEGMENT LENGTH:      14706      RECORD LENGTH: 524288

 Memory used in sort:       0.57 MW

 SORT1 READ       26487. AND WROTE        4350. INTEGRALS IN      1 RECORDS. CPU TIME:     0.00 SEC, REAL TIME:     0.00 SEC
 SORT2 READ        4350. AND WROTE       14706. INTEGRALS IN      1 RECORDS. CPU TIME:     0.01 SEC, REAL TIME:     0.01 SEC

 FILE SIZES:   FILE 1:    30.2 MBYTE,  FILE 4:     4.2 MBYTE,   TOTAL:     34.4 MBYTE

 OPERATOR DM      FOR CENTER  0  COORDINATES:    0.000000    0.000000    0.000000


 **********************************************************************************************************************************
 DATASETS  * FILE   NREC   LENGTH (MB)   RECORD NAMES
              1      19       29.99       500      700      610      900      950      970     1000      129      960     1100   
                                          VAR     GEOM    BASINP   SYMINP    ZMAT    AOBASIS   BASIS     P2S    ABASIS      S 
                                         1400     1410     1200     1210     1080     1600     1650     1300     1700   
                                           T        V       H0       H01     AOSYM     SMH    MOLCAS    ERIS     OPER   

              3       5       14.77       500      610      700     1000     2100   
                                          VAR    BASINP    GEOM     BASIS     RHF  

 PROGRAMS   *        TOTAL       INT   RESTART
 CPU TIMES  *         0.34      0.22      0.01
 REAL TIME  *         0.47 SEC
 DISK USED  *        49.44 MB
 **********************************************************************************************************************************


 PROGRAM * BCCD (Closed-shell Brueckner coupled-cluster)     Authors: C. Hampel, H.-J. Werner, 1991, M. Deegan, P.J. Knowles, 1992


 Input parameters for THRESH:

 ENERGY   =    1.00D-10
 COEFF    =    1.00D-12
 PRINTCI  =    0.000000
 THRPRINT =    0.000000

 Convergence thresholds:  THRVAR = 1.00D-24  THRDEN = 1.00D-10

 Number of closed-shell orbitals:   3 (   3 )
 Number of external orbitals:      15 (  15 )

 Molecular orbitals read from record     2100.3  Type=RHF/CANONICAL (state 1.1)

 Number of N-1 electron functions:               3
 Number of N-2 electron functions:               6
 Number of singly external CSFs:                45
 Number of doubly external CSFs:              1035
 Total number of CSFs:                        1081

 Brueckner orbitals will be computed and saved on record    2150.2

 Length of J-op  integral file:               0.00 MB
 Length of K-op  integral file:               0.06 MB

 Integral transformation finished. Total CPU:   0.00 sec, npass=  1  Memory used:   0.07 MW

 Reference energy:                    -14.86544674

 MP2 singles energy:                   -0.00000000
 MP2 singlet pair energy:              -0.01624341
 MP2 triplet pair energy:              -0.00012344
 MP2 correlation energy:               -0.01636685
 MP2 total energy:                    -14.88181359

 SCS-MP2 correlation energy:           -0.01956890   (PS=  1.200000  PT=  0.333333)
 SCS-MP2 total energy:                -14.88501564

 ITER.      SQ.NORM     CORR.ENERGY   TOTAL ENERGY   ENERGY CHANGE        DEN1      VAR(S)    VAR(P)  DIIS     TIME  TIME/IT
   1      1.04776732    -0.02441243   -14.88985917    -0.00804558    -0.00431759  0.12D-03  0.27D-02  1  1     0.01     0.01
   2      1.09094448    -0.02650577   -14.89192737    -0.00209334    -0.00678317  0.61D-04  0.12D-02  2  2     0.02     0.01
   3      1.09601272    -0.02799949   -14.89324620    -0.00149372    -0.00030350  0.19D-05  0.65D-04  3  3     0.02     0.01
   4      1.09944688    -0.02812782   -14.89333425    -0.00012833    -0.00037849  0.31D-06  0.61D-05  4  4     0.03     0.01
   5      1.09945519    -0.02811567   -14.89330952     0.00001215     0.00001220  0.80D-07  0.79D-06  5  5     0.03     0.01
   6      1.09913271    -0.02811218   -14.89331160     0.00000349     0.00005040  0.23D-07  0.13D-06  6  6     0.03     0.01
   7      1.09941944    -0.02811278   -14.89331635    -0.00000060    -0.00002910  0.66D-08  0.37D-07  6  4     0.04     0.01
   8      1.09936395    -0.02810985   -14.89331333     0.00000292     0.00000723  0.30D-08  0.45D-08  6  1     0.04     0.01
   9      1.09937154    -0.02810958   -14.89331399     0.00000027    -0.00000030  0.37D-09  0.62D-09  6  3     0.05     0.01
  10      1.09937149    -0.02810921   -14.89331390     0.00000037     0.00000017  0.35D-10  0.66D-10  6  2     0.05     0.00
  11      1.09937312    -0.02810916   -14.89331390     0.00000006    -0.00000014  0.73D-11  0.15D-10  6  5     0.05     0.00
  12      1.09937289    -0.02810910   -14.89331388     0.00000005     0.00000007  0.22D-11  0.34D-11  6  6     0.06     0.00
  13      1.09937306    -0.02810907   -14.89331388     0.00000003     0.00000001  0.45D-12  0.12D-11  6  4     0.06     0.00
  14      1.09937305    -0.02810904   -14.89331388     0.00000003     0.00000001  0.18D-13  0.22D-12  6  1     0.07     0.00
  15      1.09937302    -0.02810903   -14.89331388     0.00000001     0.00000000  0.33D-14  0.38D-13  6  3     0.07     0.00
  16      1.09937298    -0.02810903   -14.89331388     0.00000000     0.00000000  0.17D-14  0.58D-14  6  2     0.07     0.00
  17      1.09937296    -0.02810903   -14.89331388    -0.00000000     0.00000000  0.74D-15  0.11D-14  6  5     0.07     0.00
  18      1.09937296    -0.02810903   -14.89331388    -0.00000000     0.00000000  0.17D-15  0.21D-15  6  6     0.08     0.00
  19      1.09937296    -0.02810903   -14.89331388    -0.00000000    -0.00000000  0.44D-16  0.65D-16  6  4     0.08     0.00
  20      1.09937296    -0.02810903   -14.89331388    -0.00000000    -0.00000000  0.10D-16  0.17D-16  6  3     0.08     0.00
  21      1.09937296    -0.02810903   -14.89331388    -0.00000000    -0.00000000  0.14D-17  0.33D-17  6  1     0.09     0.00
  22      1.09937296    -0.02810903   -14.89331388    -0.00000000    -0.00000000  0.47D-19  0.25D-18  6  2     0.09     0.00
  23      1.09937296    -0.02810903   -14.89331388    -0.00000000    -0.00000000  0.89D-20  0.46D-19  6  1     0.09     0.00
  24      1.09937296    -0.02810903   -14.89331388    -0.00000000    -0.00000000  0.13D-20  0.24D-20  6  5     0.09     0.00
  25      1.09937296    -0.02810903   -14.89331388    -0.00000000    -0.00000000  0.16D-21  0.35D-21  6  6     0.10     0.00
  26      1.09937296    -0.02810903   -14.89331388    -0.00000000     0.00000000  0.45D-23  0.37D-22  6  4     0.10     0.00
  27      1.09937296    -0.02810903   -14.89331388    -0.00000000     0.00000000  0.61D-24  0.74D-23  6  3     0.10     0.00
  28      1.09937296    -0.02810903   -14.89331388    -0.00000000     0.00000000  0.12D-24  0.13D-23  6  1     0.11     0.00
  29      1.09937296    -0.02810903   -14.89331388    -0.00000000     0.00000000  0.17D-25  0.21D-24  6  2     0.11     0.00

 Norm of t1 vector:      0.00000000      S-energy:    -0.00000000      T1 diagnostic:  0.00000000

 Orbital rotation generators (print threshold =  0.000E+00):

         I         SYM. A    A   T(IA)

         1         1         1      0.00000000
         1         1         2     -0.00000000
         1         1         3     -0.00000000
         1         1         4      0.00010333
         1         1         5      0.00000000
         1         1         6      0.00000000
         1         1         7      0.00000000
         1         1         8     -0.00020446
         1         1         9      0.00000000
         1         1        10      0.00000000
         1         1        11      0.00007097
         1         1        12     -0.00000000
         1         1        13      0.00000000
         1         1        14     -0.00000000
         1         1        15      0.00000000
         2         1         1     -0.00033678
         2         1         2     -0.00000000
         2         1         3     -0.00000000
         2         1         4      0.00000000
         2         1         5      0.00000000
         2         1         6     -0.00000000
         2         1         7      0.00033518
         2         1         8      0.00000000
         2         1         9     -0.00000000
         2         1        10      0.00000000
         2         1        11     -0.00000000
         2         1        12      0.00007834
         2         1        13     -0.00000000
         2         1        14     -0.00000000
         2         1        15      0.00036633
         3         1         1     -0.00000000
         3         1         2      0.00000000
         3         1         3      0.00000000
         3         1         4     -0.01554385
         3         1         5      0.00000000
         3         1         6      0.00000000
         3         1         7      0.00000000
         3         1         8      0.00762998
         3         1         9      0.00000000
         3         1        10      0.00000000
         3         1        11      0.01758931
         3         1        12     -0.00000000
         3         1        13     -0.00000000
         3         1        14     -0.00000000
         3         1        15      0.00000000

 Doubles amplitudes (print threshold =  0.000E+00):

         I         J         SYM. A    SYM. B    A         B      T(IJ, AB)

         1         1         1         1         1         1     -0.00043793
         1         1         1         1         1         2     -0.00000000
         1         1         1         1         1         3      0.00000000
         1         1         1         1         1         4     -0.00000000
         1         1         1         1         1         5      0.00000000
         1         1         1         1         1         6      0.00000000
         1         1         1         1         1         7      0.00075596
         1         1         1         1         1         8      0.00000000
         1         1         1         1         1         9     -0.00000000
         1         1         1         1         1        10     -0.00000000
         1         1         1         1         1        11     -0.00000000
         1         1         1         1         1        12     -0.00021733
         1         1         1         1         1        13      0.00000000
         1         1         1         1         1        14      0.00000000
         1         1         1         1         1        15     -0.00001119
         1         1         1         1         2         1     -0.00000000
         1         1         1         1         2         2      0.00015934
         1         1         1         1         2         3      0.00000000
         1         1         1         1         2         4      0.00000000
         1         1         1         1         2         5      0.00000000
         1         1         1         1         2         6      0.00000000
         1         1         1         1         2         7     -0.00000000
         1         1         1         1         2         8      0.00000000
         1         1         1         1         2         9     -0.00008178
         1         1         1         1         2        10     -0.00014122
         1         1         1         1         2        11      0.00000000
         1         1         1         1         2        12      0.00000000
         1         1         1         1         2        13      0.00000000
         1         1         1         1         2        14      0.00000000
         1         1         1         1         2        15      0.00000000
         1         1         1         1         3         1      0.00000000
         1         1         1         1         3         2     -0.00000000
         1         1         1         1         3         3      0.00015934
         1         1         1         1         3         4      0.00000000
         1         1         1         1         3         5     -0.00000000
         1         1         1         1         3         6      0.00000000
         1         1         1         1         3         7      0.00000000
         1         1         1         1         3         8     -0.00000000
         1         1         1         1         3         9      0.00014122
         1         1         1         1         3        10     -0.00008178
         1         1         1         1         3        11      0.00000000
         1         1         1         1         3        12      0.00000000
         1         1         1         1         3        13      0.00000000
         1         1         1         1         3        14     -0.00000000
         1         1         1         1         3        15     -0.00000000
         1         1         1         1         4         1     -0.00000000
         1         1         1         1         4         2      0.00000000
         1         1         1         1         4         3      0.00000000
         1         1         1         1         4         4     -0.00002929
         1         1         1         1         4         5      0.00000000
         1         1         1         1         4         6      0.00000000
         1         1         1         1         4         7      0.00000000
         1         1         1         1         4         8      0.00023870
         1         1         1         1         4         9      0.00000000
         1         1         1         1         4        10      0.00000000
         1         1         1         1         4        11      0.00010257
         1         1         1         1         4        12      0.00000000
         1         1         1         1         4        13      0.00000000
         1         1         1         1         4        14      0.00000000
         1         1         1         1         4        15     -0.00000000
         1         1         1         1         5         1      0.00000000
         1         1         1         1         5         2      0.00000000
         1         1         1         1         5         3     -0.00000000
         1         1         1         1         5         4      0.00000000
         1         1         1         1         5         5     -0.00001361
         1         1         1         1         5         6      0.00000000
         1         1         1         1         5         7     -0.00000000
         1         1         1         1         5         8      0.00000000
         1         1         1         1         5         9     -0.00000000
         1         1         1         1         5        10     -0.00000000
         1         1         1         1         5        11      0.00000000
         1         1         1         1         5        12      0.00000000
         1         1         1         1         5        13      0.00000488
         1         1         1         1         5        14     -0.00014113
         1         1         1         1         5        15      0.00000000
         1         1         1         1         6         1      0.00000000
         1         1         1         1         6         2      0.00000000
         1         1         1         1         6         3      0.00000000
         1         1         1         1         6         4      0.00000000
         1         1         1         1         6         5      0.00000000
         1         1         1         1         6         6     -0.00001361
         1         1         1         1         6         7     -0.00000000
         1         1         1         1         6         8      0.00000000
         1         1         1         1         6         9      0.00000000
         1         1         1         1         6        10     -0.00000000
         1         1         1         1         6        11      0.00000000
         1         1         1         1         6        12      0.00000000
         1         1         1         1         6        13     -0.00014113
         1         1         1         1         6        14     -0.00000488
         1         1         1         1         6        15      0.00000000
         1         1         1         1         7         1      0.00075596
         1         1         1         1         7         2     -0.00000000
         1         1         1         1         7         3      0.00000000
         1         1         1         1         7         4      0.00000000
         1         1         1         1         7         5     -0.00000000
         1         1         1         1         7         6     -0.00000000
         1         1         1         1         7         7     -0.00113063
         1         1         1         1         7         8      0.00000000
         1         1         1         1         7         9     -0.00000000
         1         1         1         1         7        10     -0.00000000
         1         1         1         1         7        11     -0.00000000
         1         1         1         1         7        12      0.00032476
         1         1         1         1         7        13     -0.00000000
         1         1         1         1         7        14     -0.00000000
         1         1         1         1         7        15      0.00003506
         1         1         1         1         8         1      0.00000000
         1         1         1         1         8         2      0.00000000
         1         1         1         1         8         3     -0.00000000
         1         1         1         1         8         4      0.00023870
         1         1         1         1         8         5      0.00000000
         1         1         1         1         8         6      0.00000000
         1         1         1         1         8         7      0.00000000
         1         1         1         1         8         8     -0.00073081
         1         1         1         1         8         9      0.00000000
         1         1         1         1         8        10      0.00000000
         1         1         1         1         8        11     -0.00042185
         1         1         1         1         8        12     -0.00000000
         1         1         1         1         8        13     -0.00000000
         1         1         1         1         8        14      0.00000000
         1         1         1         1         8        15     -0.00000000
         1         1         1         1         9         1     -0.00000000
         1         1         1         1         9         2     -0.00008178
         1         1         1         1         9         3      0.00014122
         1         1         1         1         9         4      0.00000000
         1         1         1         1         9         5     -0.00000000
         1         1         1         1         9         6      0.00000000
         1         1         1         1         9         7     -0.00000000
         1         1         1         1         9         8      0.00000000
         1         1         1         1         9         9     -0.00096926
         1         1         1         1         9        10     -0.00000000
         1         1         1         1         9        11      0.00000000
         1         1         1         1         9        12     -0.00000000
         1         1         1         1         9        13      0.00000000
         1         1         1         1         9        14     -0.00000000
         1         1         1         1         9        15      0.00000000
         1         1         1         1        10         1     -0.00000000
         1         1         1         1        10         2     -0.00014122
         1         1         1         1        10         3     -0.00008178
         1         1         1         1        10         4      0.00000000
         1         1         1         1        10         5     -0.00000000
         1         1         1         1        10         6     -0.00000000
         1         1         1         1        10         7     -0.00000000
         1         1         1         1        10         8      0.00000000
         1         1         1         1        10         9     -0.00000000
         1         1         1         1        10        10     -0.00096926
         1         1         1         1        10        11      0.00000000
         1         1         1         1        10        12      0.00000000
         1         1         1         1        10        13     -0.00000000
         1         1         1         1        10        14     -0.00000000
         1         1         1         1        10        15      0.00000000
         1         1         1         1        11         1     -0.00000000
         1         1         1         1        11         2      0.00000000
         1         1         1         1        11         3      0.00000000
         1         1         1         1        11         4      0.00010257
         1         1         1         1        11         5      0.00000000
         1         1         1         1        11         6      0.00000000
         1         1         1         1        11         7     -0.00000000
         1         1         1         1        11         8     -0.00042185
         1         1         1         1        11         9      0.00000000
         1         1         1         1        11        10      0.00000000
         1         1         1         1        11        11     -0.00069119
         1         1         1         1        11        12      0.00000000
         1         1         1         1        11        13      0.00000000
         1         1         1         1        11        14      0.00000000
         1         1         1         1        11        15      0.00000000
         1         1         1         1        12         1     -0.00021733
         1         1         1         1        12         2      0.00000000
         1         1         1         1        12         3      0.00000000
         1         1         1         1        12         4      0.00000000
         1         1         1         1        12         5      0.00000000
         1         1         1         1        12         6      0.00000000
         1         1         1         1        12         7      0.00032476
         1         1         1         1        12         8     -0.00000000
         1         1         1         1        12         9     -0.00000000
         1         1         1         1        12        10      0.00000000
         1         1         1         1        12        11      0.00000000
         1         1         1         1        12        12     -0.00079615
         1         1         1         1        12        13      0.00000000
         1         1         1         1        12        14      0.00000000
         1         1         1         1        12        15     -0.00080833
         1         1         1         1        13         1      0.00000000
         1         1         1         1        13         2      0.00000000
         1         1         1         1        13         3      0.00000000
         1         1         1         1        13         4      0.00000000
         1         1         1         1        13         5      0.00000488
         1         1         1         1        13         6     -0.00014113
         1         1         1         1        13         7     -0.00000000
         1         1         1         1        13         8     -0.00000000
         1         1         1         1        13         9      0.00000000
         1         1         1         1        13        10     -0.00000000
         1         1         1         1        13        11      0.00000000
         1         1         1         1        13        12      0.00000000
         1         1         1         1        13        13     -0.00133791
         1         1         1         1        13        14      0.00000000
         1         1         1         1        13        15      0.00000000
         1         1         1         1        14         1      0.00000000
         1         1         1         1        14         2      0.00000000
         1         1         1         1        14         3     -0.00000000
         1         1         1         1        14         4      0.00000000
         1         1         1         1        14         5     -0.00014113
         1         1         1         1        14         6     -0.00000488
         1         1         1         1        14         7     -0.00000000
         1         1         1         1        14         8      0.00000000
         1         1         1         1        14         9     -0.00000000
         1         1         1         1        14        10     -0.00000000
         1         1         1         1        14        11      0.00000000
         1         1         1         1        14        12      0.00000000
         1         1         1         1        14        13     -0.00000000
         1         1         1         1        14        14     -0.00133791
         1         1         1         1        14        15      0.00000000
         1         1         1         1        15         1     -0.00001119
         1         1         1         1        15         2      0.00000000
         1         1         1         1        15         3     -0.00000000
         1         1         1         1        15         4     -0.00000000
         1         1         1         1        15         5      0.00000000
         1         1         1         1        15         6      0.00000000
         1         1         1         1        15         7      0.00003506
         1         1         1         1        15         8     -0.00000000
         1         1         1         1        15         9      0.00000000
         1         1         1         1        15        10      0.00000000
         1         1         1         1        15        11      0.00000000
         1         1         1         1        15        12     -0.00080833
         1         1         1         1        15        13      0.00000000
         1         1         1         1        15        14      0.00000000
         1         1         1         1        15        15     -0.00131532
         2         1         1         1         1         1     -0.00000000
         2         1         1         1         1         2     -0.00000000
         2         1         1         1         1         3     -0.00000000
         2         1         1         1         1         4      0.00008692
         2         1         1         1         1         5      0.00000000
         2         1         1         1         1         6      0.00000000
         2         1         1         1         1         7     -0.00000000
         2         1         1         1         1         8      0.00000327
         2         1         1         1         1         9     -0.00000000
         2         1         1         1         1        10     -0.00000000
         2         1         1         1         1        11      0.00050079
         2         1         1         1         1        12      0.00000000
         2         1         1         1         1        13     -0.00000000
         2         1         1         1         1        14     -0.00000000
         2         1         1         1         1        15      0.00000000
         2         1         1         1         2         1     -0.00000000
         2         1         1         1         2         2      0.00000000
         2         1         1         1         2         3      0.00000000
         2         1         1         1         2         4     -0.00000000
         2         1         1         1         2         5     -0.00002412
         2         1         1         1         2         6     -0.00001918
         2         1         1         1         2         7      0.00000000
         2         1         1         1         2         8      0.00000000
         2         1         1         1         2         9     -0.00000000
         2         1         1         1         2        10      0.00000000
         2         1         1         1         2        11     -0.00000000
         2         1         1         1         2        12     -0.00000000
         2         1         1         1         2        13     -0.00017589
         2         1         1         1         2        14     -0.00023765
         2         1         1         1         2        15     -0.00000000
         2         1         1         1         3         1     -0.00000000
         2         1         1         1         3         2      0.00000000
         2         1         1         1         3         3      0.00000000
         2         1         1         1         3         4     -0.00000000
         2         1         1         1         3         5      0.00001918
         2         1         1         1         3         6     -0.00002412
         2         1         1         1         3         7      0.00000000
         2         1         1         1         3         8      0.00000000
         2         1         1         1         3         9     -0.00000000
         2         1         1         1         3        10      0.00000000
         2         1         1         1         3        11     -0.00000000
         2         1         1         1         3        12     -0.00000000
         2         1         1         1         3        13     -0.00023765
         2         1         1         1         3        14      0.00017589
         2         1         1         1         3        15     -0.00000000
         2         1         1         1         4         1      0.00009569
         2         1         1         1         4         2     -0.00000000
         2         1         1         1         4         3     -0.00000000
         2         1         1         1         4         4     -0.00000000
         2         1         1         1         4         5      0.00000000
         2         1         1         1         4         6      0.00000000
         2         1         1         1         4         7     -0.00011705
         2         1         1         1         4         8     -0.00000000
         2         1         1         1         4         9     -0.00000000
         2         1         1         1         4        10     -0.00000000
         2         1         1         1         4        11      0.00000000
         2         1         1         1         4        12     -0.00023468
         2         1         1         1         4        13      0.00000000
         2         1         1         1         4        14      0.00000000
         2         1         1         1         4        15     -0.00036823
         2         1         1         1         5         1      0.00000000
         2         1         1         1         5         2     -0.00002646
         2         1         1         1         5         3      0.00002104
         2         1         1         1         5         4      0.00000000
         2         1         1         1         5         5      0.00000000
         2         1         1         1         5         6     -0.00000000
         2         1         1         1         5         7      0.00000000
         2         1         1         1         5         8     -0.00000000
         2         1         1         1         5         9     -0.00012171
         2         1         1         1         5        10     -0.00004779
         2         1         1         1         5        11     -0.00000000
         2         1         1         1         5        12      0.00000000
         2         1         1         1         5        13     -0.00000000
         2         1         1         1         5        14     -0.00000000
         2         1         1         1         5        15      0.00000000
         2         1         1         1         6         1      0.00000000
         2         1         1         1         6         2     -0.00002104
         2         1         1         1         6         3     -0.00002646
         2         1         1         1         6         4      0.00000000
         2         1         1         1         6         5     -0.00000000
         2         1         1         1         6         6      0.00000000
         2         1         1         1         6         7     -0.00000000
         2         1         1         1         6         8     -0.00000000
         2         1         1         1         6         9      0.00004779
         2         1         1         1         6        10     -0.00012171
         2         1         1         1         6        11     -0.00000000
         2         1         1         1         6        12      0.00000000
         2         1         1         1         6        13     -0.00000000
         2         1         1         1         6        14     -0.00000000
         2         1         1         1         6        15      0.00000000
         2         1         1         1         7         1     -0.00000000
         2         1         1         1         7         2      0.00000000
         2         1         1         1         7         3      0.00000000
         2         1         1         1         7         4     -0.00010625
         2         1         1         1         7         5      0.00000000
         2         1         1         1         7         6     -0.00000000
         2         1         1         1         7         7     -0.00000000
         2         1         1         1         7         8     -0.00002732
         2         1         1         1         7         9      0.00000000
         2         1         1         1         7        10      0.00000000
         2         1         1         1         7        11     -0.00069980
         2         1         1         1         7        12     -0.00000000
         2         1         1         1         7        13      0.00000000
         2         1         1         1         7        14      0.00000000
         2         1         1         1         7        15      0.00000000
         2         1         1         1         8         1     -0.00001596
         2         1         1         1         8         2      0.00000000
         2         1         1         1         8         3      0.00000000
         2         1         1         1         8         4     -0.00000000
         2         1         1         1         8         5     -0.00000000
         2         1         1         1         8         6     -0.00000000
         2         1         1         1         8         7     -0.00000357
         2         1         1         1         8         8      0.00000000
         2         1         1         1         8         9      0.00000000
         2         1         1         1         8        10     -0.00000000
         2         1         1         1         8        11      0.00000000
         2         1         1         1         8        12      0.00066625
         2         1         1         1         8        13     -0.00000000
         2         1         1         1         8        14     -0.00000000
         2         1         1         1         8        15      0.00096029
         2         1         1         1         9         1     -0.00000000
         2         1         1         1         9         2      0.00000000
         2         1         1         1         9         3     -0.00000000
         2         1         1         1         9         4     -0.00000000
         2         1         1         1         9         5     -0.00011409
         2         1         1         1         9         6      0.00004480
         2         1         1         1         9         7      0.00000000
         2         1         1         1         9         8      0.00000000
         2         1         1         1         9         9      0.00000000
         2         1         1         1         9        10      0.00000000
         2         1         1         1         9        11      0.00000000
         2         1         1         1         9        12     -0.00000000
         2         1         1         1         9        13      0.00045470
         2         1         1         1         9        14     -0.00104976
         2         1         1         1         9        15     -0.00000000
         2         1         1         1        10         1     -0.00000000
         2         1         1         1        10         2      0.00000000
         2         1         1         1        10         3      0.00000000
         2         1         1         1        10         4     -0.00000000
         2         1         1         1        10         5     -0.00004480
         2         1         1         1        10         6     -0.00011409
         2         1         1         1        10         7      0.00000000
         2         1         1         1        10         8     -0.00000000
         2         1         1         1        10         9      0.00000000
         2         1         1         1        10        10      0.00000000
         2         1         1         1        10        11     -0.00000000
         2         1         1         1        10        12     -0.00000000
         2         1         1         1        10        13     -0.00104976
         2         1         1         1        10        14     -0.00045470
         2         1         1         1        10        15     -0.00000000
         2         1         1         1        11         1      0.00048794
         2         1         1         1        11         2     -0.00000000
         2         1         1         1        11         3     -0.00000000
         2         1         1         1        11         4      0.00000000
         2         1         1         1        11         5     -0.00000000
         2         1         1         1        11         6     -0.00000000
         2         1         1         1        11         7     -0.00068404
         2         1         1         1        11         8      0.00000000
         2         1         1         1        11         9      0.00000000
         2         1         1         1        11        10     -0.00000000
         2         1         1         1        11        11     -0.00000000
         2         1         1         1        11        12      0.00061827
         2         1         1         1        11        13     -0.00000000
         2         1         1         1        11        14     -0.00000000
         2         1         1         1        11        15      0.00041126
         2         1         1         1        12         1      0.00000000
         2         1         1         1        12         2     -0.00000000
         2         1         1         1        12         3     -0.00000000
         2         1         1         1        12         4     -0.00026449
         2         1         1         1        12         5      0.00000000
         2         1         1         1        12         6      0.00000000
         2         1         1         1        12         7     -0.00000000
         2         1         1         1        12         8      0.00073221
         2         1         1         1        12         9     -0.00000000
         2         1         1         1        12        10     -0.00000000
         2         1         1         1        12        11      0.00066009
         2         1         1         1        12        12      0.00000000
         2         1         1         1        12        13     -0.00000000
         2         1         1         1        12        14     -0.00000000
         2         1         1         1        12        15      0.00000000
         2         1         1         1        13         1     -0.00000000
         2         1         1         1        13         2     -0.00018733
         2         1         1         1        13         3     -0.00025310
         2         1         1         1        13         4      0.00000000
         2         1         1         1        13         5     -0.00000000
         2         1         1         1        13         6     -0.00000000
         2         1         1         1        13         7      0.00000000
         2         1         1         1        13         8     -0.00000000
         2         1         1         1        13         9      0.00047543
         2         1         1         1        13        10     -0.00109761
         2         1         1         1        13        11     -0.00000000
         2         1         1         1        13        12     -0.00000000
         2         1         1         1        13        13     -0.00000000
         2         1         1         1        13        14     -0.00000000
         2         1         1         1        13        15      0.00000000
         2         1         1         1        14         1     -0.00000000
         2         1         1         1        14         2     -0.00025310
         2         1         1         1        14         3      0.00018733
         2         1         1         1        14         4      0.00000000
         2         1         1         1        14         5     -0.00000000
         2         1         1         1        14         6     -0.00000000
         2         1         1         1        14         7      0.00000000
         2         1         1         1        14         8     -0.00000000
         2         1         1         1        14         9     -0.00109761
         2         1         1         1        14        10     -0.00047543
         2         1         1         1        14        11     -0.00000000
         2         1         1         1        14        12     -0.00000000
         2         1         1         1        14        13     -0.00000000
         2         1         1         1        14        14     -0.00000000
         2         1         1         1        14        15      0.00000000
         2         1         1         1        15         1      0.00000000
         2         1         1         1        15         2     -0.00000000
         2         1         1         1        15         3     -0.00000000
         2         1         1         1        15         4     -0.00039857
         2         1         1         1        15         5      0.00000000
         2         1         1         1        15         6      0.00000000
         2         1         1         1        15         7      0.00000000
         2         1         1         1        15         8      0.00102784
         2         1         1         1        15         9     -0.00000000
         2         1         1         1        15        10     -0.00000000
         2         1         1         1        15        11      0.00045378
         2         1         1         1        15        12      0.00000000
         2         1         1         1        15        13      0.00000000
         2         1         1         1        15        14      0.00000000
         2         1         1         1        15        15     -0.00000000
         2         2         1         1         1         1     -0.00044299
         2         2         1         1         1         2     -0.00000000
         2         2         1         1         1         3      0.00000000
         2         2         1         1         1         4     -0.00000000
         2         2         1         1         1         5      0.00000000
         2         2         1         1         1         6      0.00000000
         2         2         1         1         1         7      0.00076215
         2         2         1         1         1         8      0.00000000
         2         2         1         1         1         9     -0.00000000
         2         2         1         1         1        10     -0.00000000
         2         2         1         1         1        11      0.00000000
         2         2         1         1         1        12     -0.00023339
         2         2         1         1         1        13      0.00000000
         2         2         1         1         1        14      0.00000000
         2         2         1         1         1        15     -0.00002777
         2         2         1         1         2         1     -0.00000000
         2         2         1         1         2         2      0.00016655
         2         2         1         1         2         3     -0.00000000
         2         2         1         1         2         4      0.00000000
         2         2         1         1         2         5      0.00000000
         2         2         1         1         2         6      0.00000000
         2         2         1         1         2         7     -0.00000000
         2         2         1         1         2         8      0.00000000
         2         2         1         1         2         9     -0.00007181
         2         2         1         1         2        10     -0.00012402
         2         2         1         1         2        11      0.00000000
         2         2         1         1         2        12      0.00000000
         2         2         1         1         2        13      0.00000000
         2         2         1         1         2        14      0.00000000
         2         2         1         1         2        15      0.00000000
         2         2         1         1         3         1      0.00000000
         2         2         1         1         3         2     -0.00000000
         2         2         1         1         3         3      0.00016655
         2         2         1         1         3         4      0.00000000
         2         2         1         1         3         5     -0.00000000
         2         2         1         1         3         6      0.00000000
         2         2         1         1         3         7      0.00000000
         2         2         1         1         3         8     -0.00000000
         2         2         1         1         3         9      0.00012402
         2         2         1         1         3        10     -0.00007181
         2         2         1         1         3        11      0.00000000
         2         2         1         1         3        12      0.00000000
         2         2         1         1         3        13      0.00000000
         2         2         1         1         3        14     -0.00000000
         2         2         1         1         3        15     -0.00000000
         2         2         1         1         4         1     -0.00000000
         2         2         1         1         4         2      0.00000000
         2         2         1         1         4         3      0.00000000
         2         2         1         1         4         4     -0.00001278
         2         2         1         1         4         5      0.00000000
         2         2         1         1         4         6      0.00000000
         2         2         1         1         4         7     -0.00000000
         2         2         1         1         4         8      0.00020240
         2         2         1         1         4         9      0.00000000
         2         2         1         1         4        10      0.00000000
         2         2         1         1         4        11      0.00007858
         2         2         1         1         4        12     -0.00000000
         2         2         1         1         4        13      0.00000000
         2         2         1         1         4        14      0.00000000
         2         2         1         1         4        15      0.00000000
         2         2         1         1         5         1      0.00000000
         2         2         1         1         5         2      0.00000000
         2         2         1         1         5         3     -0.00000000
         2         2         1         1         5         4      0.00000000
         2         2         1         1         5         5     -0.00001502
         2         2         1         1         5         6     -0.00000000
         2         2         1         1         5         7     -0.00000000
         2         2         1         1         5         8      0.00000000
         2         2         1         1         5         9     -0.00000000
         2         2         1         1         5        10     -0.00000000
         2         2         1         1         5        11      0.00000000
         2         2         1         1         5        12      0.00000000
         2         2         1         1         5        13      0.00000518
         2         2         1         1         5        14     -0.00014984
         2         2         1         1         5        15      0.00000000
         2         2         1         1         6         1      0.00000000
         2         2         1         1         6         2      0.00000000
         2         2         1         1         6         3      0.00000000
         2         2         1         1         6         4      0.00000000
         2         2         1         1         6         5     -0.00000000
         2         2         1         1         6         6     -0.00001502
         2         2         1         1         6         7     -0.00000000
         2         2         1         1         6         8      0.00000000
         2         2         1         1         6         9      0.00000000
         2         2         1         1         6        10     -0.00000000
         2         2         1         1         6        11      0.00000000
         2         2         1         1         6        12      0.00000000
         2         2         1         1         6        13     -0.00014984
         2         2         1         1         6        14     -0.00000518
         2         2         1         1         6        15      0.00000000
         2         2         1         1         7         1      0.00076215
         2         2         1         1         7         2     -0.00000000
         2         2         1         1         7         3      0.00000000
         2         2         1         1         7         4     -0.00000000
         2         2         1         1         7         5     -0.00000000
         2         2         1         1         7         6     -0.00000000
         2         2         1         1         7         7     -0.00113806
         2         2         1         1         7         8      0.00000000
         2         2         1         1         7         9     -0.00000000
         2         2         1         1         7        10     -0.00000000
         2         2         1         1         7        11     -0.00000000
         2         2         1         1         7        12      0.00034419
         2         2         1         1         7        13     -0.00000000
         2         2         1         1         7        14     -0.00000000
         2         2         1         1         7        15      0.00005509
         2         2         1         1         8         1      0.00000000
         2         2         1         1         8         2      0.00000000
         2         2         1         1         8         3     -0.00000000
         2         2         1         1         8         4      0.00020240
         2         2         1         1         8         5      0.00000000
         2         2         1         1         8         6      0.00000000
         2         2         1         1         8         7      0.00000000
         2         2         1         1         8         8     -0.00065078
         2         2         1         1         8         9      0.00000000
         2         2         1         1         8        10      0.00000000
         2         2         1         1         8        11     -0.00036938
         2         2         1         1         8        12     -0.00000000
         2         2         1         1         8        13     -0.00000000
         2         2         1         1         8        14      0.00000000
         2         2         1         1         8        15     -0.00000000
         2         2         1         1         9         1     -0.00000000
         2         2         1         1         9         2     -0.00007181
         2         2         1         1         9         3      0.00012402
         2         2         1         1         9         4      0.00000000
         2         2         1         1         9         5     -0.00000000
         2         2         1         1         9         6      0.00000000
         2         2         1         1         9         7     -0.00000000
         2         2         1         1         9         8      0.00000000
         2         2         1         1         9         9     -0.00091578
         2         2         1         1         9        10     -0.00000000
         2         2         1         1         9        11      0.00000000
         2         2         1         1         9        12     -0.00000000
         2         2         1         1         9        13      0.00000000
         2         2         1         1         9        14     -0.00000000
         2         2         1         1         9        15      0.00000000
         2         2         1         1        10         1     -0.00000000
         2         2         1         1        10         2     -0.00012402
         2         2         1         1        10         3     -0.00007181
         2         2         1         1        10         4      0.00000000
         2         2         1         1        10         5     -0.00000000
         2         2         1         1        10         6     -0.00000000
         2         2         1         1        10         7     -0.00000000
         2         2         1         1        10         8      0.00000000
         2         2         1         1        10         9     -0.00000000
         2         2         1         1        10        10     -0.00091578
         2         2         1         1        10        11      0.00000000
         2         2         1         1        10        12      0.00000000
         2         2         1         1        10        13     -0.00000000
         2         2         1         1        10        14     -0.00000000
         2         2         1         1        10        15      0.00000000
         2         2         1         1        11         1     -0.00000000
         2         2         1         1        11         2      0.00000000
         2         2         1         1        11         3      0.00000000
         2         2         1         1        11         4      0.00007858
         2         2         1         1        11         5      0.00000000
         2         2         1         1        11         6      0.00000000
         2         2         1         1        11         7     -0.00000000
         2         2         1         1        11         8     -0.00036938
         2         2         1         1        11         9      0.00000000
         2         2         1         1        11        10      0.00000000
         2         2         1         1        11        11     -0.00065807
         2         2         1         1        11        12     -0.00000000
         2         2         1         1        11        13      0.00000000
         2         2         1         1        11        14      0.00000000
         2         2         1         1        11        15      0.00000000
         2         2         1         1        12         1     -0.00023339
         2         2         1         1        12         2      0.00000000
         2         2         1         1        12         3      0.00000000
         2         2         1         1        12         4     -0.00000000
         2         2         1         1        12         5      0.00000000
         2         2         1         1        12         6      0.00000000
         2         2         1         1        12         7      0.00034419
         2         2         1         1        12         8     -0.00000000
         2         2         1         1        12         9     -0.00000000
         2         2         1         1        12        10      0.00000000
         2         2         1         1        12        11     -0.00000000
         2         2         1         1        12        12     -0.00085149
         2         2         1         1        12        13      0.00000000
         2         2         1         1        12        14      0.00000000
         2         2         1         1        12        15     -0.00086617
         2         2         1         1        13         1      0.00000000
         2         2         1         1        13         2      0.00000000
         2         2         1         1        13         3      0.00000000
         2         2         1         1        13         4      0.00000000
         2         2         1         1        13         5      0.00000518
         2         2         1         1        13         6     -0.00014984
         2         2         1         1        13         7     -0.00000000
         2         2         1         1        13         8     -0.00000000
         2         2         1         1        13         9      0.00000000
         2         2         1         1        13        10     -0.00000000
         2         2         1         1        13        11      0.00000000
         2         2         1         1        13        12      0.00000000
         2         2         1         1        13        13     -0.00139149
         2         2         1         1        13        14      0.00000000
         2         2         1         1        13        15      0.00000000
         2         2         1         1        14         1      0.00000000
         2         2         1         1        14         2      0.00000000
         2         2         1         1        14         3     -0.00000000
         2         2         1         1        14         4      0.00000000
         2         2         1         1        14         5     -0.00014984
         2         2         1         1        14         6     -0.00000518
         2         2         1         1        14         7     -0.00000000
         2         2         1         1        14         8      0.00000000
         2         2         1         1        14         9     -0.00000000
         2         2         1         1        14        10     -0.00000000
         2         2         1         1        14        11      0.00000000
         2         2         1         1        14        12      0.00000000
         2         2         1         1        14        13      0.00000000
         2         2         1         1        14        14     -0.00139149
         2         2         1         1        14        15      0.00000000
         2         2         1         1        15         1     -0.00002777
         2         2         1         1        15         2      0.00000000
         2         2         1         1        15         3     -0.00000000
         2         2         1         1        15         4      0.00000000
         2         2         1         1        15         5      0.00000000
         2         2         1         1        15         6      0.00000000
         2         2         1         1        15         7      0.00005509
         2         2         1         1        15         8     -0.00000000
         2         2         1         1        15         9      0.00000000
         2         2         1         1        15        10      0.00000000
         2         2         1         1        15        11      0.00000000
         2         2         1         1        15        12     -0.00086617
         2         2         1         1        15        13      0.00000000
         2         2         1         1        15        14      0.00000000
         2         2         1         1        15        15     -0.00137625
         3         1         1         1         1         1      0.00025741
         3         1         1         1         1         2      0.00000000
         3         1         1         1         1         3      0.00000000
         3         1         1         1         1         4     -0.00000000
         3         1         1         1         1         5      0.00000000
         3         1         1         1         1         6      0.00000000
         3         1         1         1         1         7     -0.00029050
         3         1         1         1         1         8     -0.00000000
         3         1         1         1         1         9     -0.00000000
         3         1         1         1         1        10     -0.00000000
         3         1         1         1         1        11      0.00000000
         3         1         1         1         1        12     -0.00054930
         3         1         1         1         1        13      0.00000000
         3         1         1         1         1        14      0.00000000
         3         1         1         1         1        15     -0.00087759
         3         1         1         1         2         1      0.00000000
         3         1         1         1         2         2     -0.00061797
         3         1         1         1         2         3      0.00000000
         3         1         1         1         2         4     -0.00000000
         3         1         1         1         2         5      0.00000000
         3         1         1         1         2         6      0.00000000
         3         1         1         1         2         7     -0.00000000
         3         1         1         1         2         8     -0.00000000
         3         1         1         1         2         9     -0.00075256
         3         1         1         1         2        10     -0.00129961
         3         1         1         1         2        11     -0.00000000
         3         1         1         1         2        12     -0.00000000
         3         1         1         1         2        13      0.00000000
         3         1         1         1         2        14      0.00000000
         3         1         1         1         2        15     -0.00000000
         3         1         1         1         3         1      0.00000000
         3         1         1         1         3         2      0.00000000
         3         1         1         1         3         3     -0.00061797
         3         1         1         1         3         4      0.00000000
         3         1         1         1         3         5     -0.00000000
         3         1         1         1         3         6      0.00000000
         3         1         1         1         3         7     -0.00000000
         3         1         1         1         3         8     -0.00000000
         3         1         1         1         3         9      0.00129961
         3         1         1         1         3        10     -0.00075256
         3         1         1         1         3        11     -0.00000000
         3         1         1         1         3        12     -0.00000000
         3         1         1         1         3        13      0.00000000
         3         1         1         1         3        14     -0.00000000
         3         1         1         1         3        15     -0.00000000
         3         1         1         1         4         1     -0.00000000
         3         1         1         1         4         2     -0.00000000
         3         1         1         1         4         3     -0.00000000
         3         1         1         1         4         4     -0.00068497
         3         1         1         1         4         5      0.00000000
         3         1         1         1         4         6      0.00000000
         3         1         1         1         4         7      0.00000000
         3         1         1         1         4         8      0.00141647
         3         1         1         1         4         9     -0.00000000
         3         1         1         1         4        10      0.00000000
         3         1         1         1         4        11      0.00105590
         3         1         1         1         4        12     -0.00000000
         3         1         1         1         4        13      0.00000000
         3         1         1         1         4        14      0.00000000
         3         1         1         1         4        15     -0.00000000
         3         1         1         1         5         1      0.00000000
         3         1         1         1         5         2      0.00000000
         3         1         1         1         5         3     -0.00000000
         3         1         1         1         5         4      0.00000000
         3         1         1         1         5         5     -0.00016171
         3         1         1         1         5         6     -0.00000000
         3         1         1         1         5         7      0.00000000
         3         1         1         1         5         8     -0.00000000
         3         1         1         1         5         9      0.00000000
         3         1         1         1         5        10      0.00000000
         3         1         1         1         5        11     -0.00000000
         3         1         1         1         5        12     -0.00000000
         3         1         1         1         5        13      0.00003201
         3         1         1         1         5        14     -0.00092517
         3         1         1         1         5        15      0.00000000
         3         1         1         1         6         1      0.00000000
         3         1         1         1         6         2      0.00000000
         3         1         1         1         6         3      0.00000000
         3         1         1         1         6         4      0.00000000
         3         1         1         1         6         5     -0.00000000
         3         1         1         1         6         6     -0.00016171
         3         1         1         1         6         7     -0.00000000
         3         1         1         1         6         8     -0.00000000
         3         1         1         1         6         9     -0.00000000
         3         1         1         1         6        10      0.00000000
         3         1         1         1         6        11     -0.00000000
         3         1         1         1         6        12      0.00000000
         3         1         1         1         6        13     -0.00092517
         3         1         1         1         6        14     -0.00003201
         3         1         1         1         6        15      0.00000000
         3         1         1         1         7         1     -0.00046228
         3         1         1         1         7         2     -0.00000000
         3         1         1         1         7         3     -0.00000000
         3         1         1         1         7         4     -0.00000000
         3         1         1         1         7         5     -0.00000000
         3         1         1         1         7         6     -0.00000000
         3         1         1         1         7         7      0.00052610
         3         1         1         1         7         8      0.00000000
         3         1         1         1         7         9     -0.00000000
         3         1         1         1         7        10      0.00000000
         3         1         1         1         7        11     -0.00000000
         3         1         1         1         7        12      0.00016795
         3         1         1         1         7        13     -0.00000000
         3         1         1         1         7        14     -0.00000000
         3         1         1         1         7        15      0.00054110
         3         1         1         1         8         1     -0.00000000
         3         1         1         1         8         2     -0.00000000
         3         1         1         1         8         3      0.00000000
         3         1         1         1         8         4      0.00080696
         3         1         1         1         8         5     -0.00000000
         3         1         1         1         8         6     -0.00000000
         3         1         1         1         8         7      0.00000000
         3         1         1         1         8         8     -0.00174625
         3         1         1         1         8         9      0.00000000
         3         1         1         1         8        10     -0.00000000
         3         1         1         1         8        11     -0.00135075
         3         1         1         1         8        12     -0.00000000
         3         1         1         1         8        13     -0.00000000
         3         1         1         1         8        14      0.00000000
         3         1         1         1         8        15      0.00000000
[...]
         3         3         1         1         2        10     -0.05982815
         3         3         1         1         2        11     -0.00000000
         3         3         1         1         2        12      0.00000000
         3         3         1         1         2        13     -0.00000000
         3         3         1         1         2        14     -0.00000000
         3         3         1         1         2        15     -0.00000000
         3         3         1         1         3         1     -0.00000000
         3         3         1         1         3         2      0.00000000
         3         3         1         1         3         3     -0.14245784
         3         3         1         1         3         4     -0.00000000
         3         3         1         1         3         5      0.00000000
         3         3         1         1         3         6     -0.00000000
         3         3         1         1         3         7     -0.00000000
         3         3         1         1         3         8      0.00000000
         3         3         1         1         3         9      0.05982815
         3         3         1         1         3        10     -0.03464442
         3         3         1         1         3        11      0.00000000
         3         3         1         1         3        12     -0.00000000
         3         3         1         1         3        13     -0.00000000
         3         3         1         1         3        14      0.00000000
         3         3         1         1         3        15      0.00000000
         3         3         1         1         4         1      0.00000000
         3         3         1         1         4         2     -0.00000000
         3         3         1         1         4         3     -0.00000000
         3         3         1         1         4         4     -0.07041612
         3         3         1         1         4         5     -0.00000000
         3         3         1         1         4         6     -0.00000000
         3         3         1         1         4         7      0.00000000
         3         3         1         1         4         8      0.05656667
         3         3         1         1         4         9     -0.00000000
         3         3         1         1         4        10     -0.00000000
         3         3         1         1         4        11      0.00161815
         3         3         1         1         4        12      0.00000000
         3         3         1         1         4        13     -0.00000000
         3         3         1         1         4        14     -0.00000000
         3         3         1         1         4        15      0.00000000
         3         3         1         1         5         1     -0.00000000
         3         3         1         1         5         2     -0.00000000
         3         3         1         1         5         3      0.00000000
         3         3         1         1         5         4     -0.00000000
         3         3         1         1         5         5      0.00080945
         3         3         1         1         5         6      0.00000000
         3         3         1         1         5         7      0.00000000
         3         3         1         1         5         8     -0.00000000
         3         3         1         1         5         9      0.00000000
         3         3         1         1         5        10      0.00000000
         3         3         1         1         5        11     -0.00000000
         3         3         1         1         5        12     -0.00000000
         3         3         1         1         5        13      0.00003308
         3         3         1         1         5        14     -0.00095607
         3         3         1         1         5        15      0.00000000
         3         3         1         1         6         1     -0.00000000
         3         3         1         1         6         2     -0.00000000
         3         3         1         1         6         3     -0.00000000
         3         3         1         1         6         4     -0.00000000
         3         3         1         1         6         5      0.00000000
         3         3         1         1         6         6      0.00080945
         3         3         1         1         6         7      0.00000000
         3         3         1         1         6         8     -0.00000000
         3         3         1         1         6         9     -0.00000000
         3         3         1         1         6        10      0.00000000
         3         3         1         1         6        11     -0.00000000
         3         3         1         1         6        12     -0.00000000
         3         3         1         1         6        13     -0.00095607
         3         3         1         1         6        14     -0.00003308
         3         3         1         1         6        15     -0.00000000
         3         3         1         1         7         1      0.06195654
         3         3         1         1         7         2      0.00000000
         3         3         1         1         7         3     -0.00000000
         3         3         1         1         7         4      0.00000000
         3         3         1         1         7         5      0.00000000
         3         3         1         1         7         6      0.00000000
         3         3         1         1         7         7     -0.03951079
         3         3         1         1         7         8      0.00000000
         3         3         1         1         7         9      0.00000000
         3         3         1         1         7        10      0.00000000
         3         3         1         1         7        11     -0.00000000
         3         3         1         1         7        12      0.00233265
         3         3         1         1         7        13      0.00000000
         3         3         1         1         7        14      0.00000000
         3         3         1         1         7        15     -0.01829169
         3         3         1         1         8         1     -0.00000000
         3         3         1         1         8         2     -0.00000000
         3         3         1         1         8         3      0.00000000
         3         3         1         1         8         4      0.05656667
         3         3         1         1         8         5     -0.00000000
         3         3         1         1         8         6     -0.00000000
         3         3         1         1         8         7      0.00000000
         3         3         1         1         8         8     -0.05424086
         3         3         1         1         8         9     -0.00000000
         3         3         1         1         8        10     -0.00000000
         3         3         1         1         8        11      0.00310688
         3         3         1         1         8        12     -0.00000000
         3         3         1         1         8        13      0.00000000
         3         3         1         1         8        14      0.00000000
         3         3         1         1         8        15      0.00000000
         3         3         1         1         9         1      0.00000000
         3         3         1         1         9         2     -0.03464442
         3         3         1         1         9         3      0.05982815
         3         3         1         1         9         4     -0.00000000
         3         3         1         1         9         5      0.00000000
         3         3         1         1         9         6     -0.00000000
         3         3         1         1         9         7      0.00000000
         3         3         1         1         9         8     -0.00000000
         3         3         1         1         9         9     -0.03663555
         3         3         1         1         9        10      0.00000000
         3         3         1         1         9        11      0.00000000
         3         3         1         1         9        12      0.00000000
         3         3         1         1         9        13     -0.00000000
         3         3         1         1         9        14      0.00000000
         3         3         1         1         9        15     -0.00000000
         3         3         1         1        10         1      0.00000000
         3         3         1         1        10         2     -0.05982815
         3         3         1         1        10         3     -0.03464442
         3         3         1         1        10         4     -0.00000000
         3         3         1         1        10         5      0.00000000
         3         3         1         1        10         6      0.00000000
         3         3         1         1        10         7      0.00000000
         3         3         1         1        10         8     -0.00000000
         3         3         1         1        10         9     -0.00000000
         3         3         1         1        10        10     -0.03663555
         3         3         1         1        10        11     -0.00000000
         3         3         1         1        10        12     -0.00000000
         3         3         1         1        10        13      0.00000000
         3         3         1         1        10        14      0.00000000
         3         3         1         1        10        15     -0.00000000
         3         3         1         1        11         1      0.00000000
         3         3         1         1        11         2     -0.00000000
         3         3         1         1        11         3      0.00000000
         3         3         1         1        11         4      0.00161815
         3         3         1         1        11         5     -0.00000000
         3         3         1         1        11         6     -0.00000000
         3         3         1         1        11         7     -0.00000000
         3         3         1         1        11         8      0.00310688
         3         3         1         1        11         9      0.00000000
         3         3         1         1        11        10     -0.00000000
         3         3         1         1        11        11     -0.00431446
         3         3         1         1        11        12     -0.00000000
         3         3         1         1        11        13     -0.00000000
         3         3         1         1        11        14     -0.00000000
         3         3         1         1        11        15     -0.00000000
         3         3         1         1        12         1     -0.00403349
         3         3         1         1        12         2      0.00000000
         3         3         1         1        12         3     -0.00000000
         3         3         1         1        12         4      0.00000000
         3         3         1         1        12         5     -0.00000000
         3         3         1         1        12         6     -0.00000000
         3         3         1         1        12         7      0.00233265
         3         3         1         1        12         8     -0.00000000
         3         3         1         1        12         9      0.00000000
         3         3         1         1        12        10     -0.00000000
         3         3         1         1        12        11     -0.00000000
         3         3         1         1        12        12      0.00006558
         3         3         1         1        12        13     -0.00000000
         3         3         1         1        12        14     -0.00000000
         3         3         1         1        12        15      0.00114035
         3         3         1         1        13         1     -0.00000000
         3         3         1         1        13         2     -0.00000000
         3         3         1         1        13         3     -0.00000000
         3         3         1         1        13         4     -0.00000000
         3         3         1         1        13         5      0.00003308
         3         3         1         1        13         6     -0.00095607
         3         3         1         1        13         7      0.00000000
         3         3         1         1        13         8      0.00000000
         3         3         1         1        13         9     -0.00000000
         3         3         1         1        13        10      0.00000000
         3         3         1         1        13        11     -0.00000000
         3         3         1         1        13        12     -0.00000000
         3         3         1         1        13        13     -0.00303753
         3         3         1         1        13        14     -0.00000000
         3         3         1         1        13        15     -0.00000000
         3         3         1         1        14         1      0.00000000
         3         3         1         1        14         2     -0.00000000
         3         3         1         1        14         3      0.00000000
         3         3         1         1        14         4     -0.00000000
         3         3         1         1        14         5     -0.00095607
         3         3         1         1        14         6     -0.00003308
         3         3         1         1        14         7      0.00000000
         3         3         1         1        14         8      0.00000000
         3         3         1         1        14         9      0.00000000
         3         3         1         1        14        10      0.00000000
         3         3         1         1        14        11     -0.00000000
         3         3         1         1        14        12     -0.00000000
         3         3         1         1        14        13     -0.00000000
         3         3         1         1        14        14     -0.00303753
         3         3         1         1        14        15      0.00000000
         3         3         1         1        15         1      0.02555696
         3         3         1         1        15         2     -0.00000000
         3         3         1         1        15         3      0.00000000
         3         3         1         1        15         4      0.00000000
         3         3         1         1        15         5      0.00000000
         3         3         1         1        15         6     -0.00000000
         3         3         1         1        15         7     -0.01829169
         3         3         1         1        15         8      0.00000000
         3         3         1         1        15         9     -0.00000000
         3         3         1         1        15        10     -0.00000000
         3         3         1         1        15        11     -0.00000000
         3         3         1         1        15        12      0.00114035
         3         3         1         1        15        13     -0.00000000
         3         3         1         1        15        14      0.00000000
         3         3         1         1        15        15     -0.01158619


 RESULTS
 =======

  Reference energy                    -14.865204848304

  Correlated core orbitals:             1.1       2.1
  Orbital energies:                    -2.4425   -2.4422

  BCCD core-core energy                -0.000304800225
  BCCD core-valence energy             -0.000500602628
  BCCD valence correlation energy      -0.027303629770

  BCCD singlet pair energy             -0.027998190206
  BCCD triplet pair energy             -0.000110842418
  BCCD correlation energy              -0.028109032624

 !BCCD total energy                   -14.893313880928

 Approximate expectation values using Brueckner orbitals

 !BCCD(ref) STATE  1.1 Dipole momen    -0.00000000     0.00000000     0.00000000
 Dipole moment /Debye                  -0.00000000     0.00000000     0.00000000

 Brueckner orbitals saved on record           2150.2 (orbital set 1)
 Brueckner density (ref) saved on record      2150.2 (density set 1)

 Brueckner orbitals
 ==================

   Orb     Occ           Coefficients

                         1 1s      1 1s      1 1s      1 2px     1 2py     1 2pz     1 2px     1 2py     1 2pz     2 1s   
                         2 1s      2 1s      2 2px     2 2py     2 2pz     2 2px     2 2py     2 2pz  

   1.1    2.0000000    0.706194  0.012173 -0.005770 -0.000000 -0.000000 -0.001766  0.000000  0.000000  0.001109  0.706194
                       0.012173 -0.005770 -0.000000  0.000000  0.001766  0.000000 -0.000000 -0.001109

   2.1    2.0000000    0.706723  0.013219 -0.011818  0.000000  0.000000 -0.002286 -0.000000 -0.000000 -0.001120 -0.706723
                      -0.013219  0.011818  0.000000 -0.000000 -0.002286  0.000000  0.000000 -0.001120

   3.1    2.0000000   -0.150300  0.229031  0.341576 -0.000000  0.000000  0.095140  0.000000  0.000000 -0.028170 -0.150300
                       0.229031  0.341576  0.000000  0.000000 -0.095140 -0.000000 -0.000000  0.028170

 Timing summary (sec):

 STEP                 CPU(USER)    SYS     CPU(TOT)    WALL
 Transformation          0.03      0.02      0.05      0.09
 CCSD iterations         0.11      0.04      0.15      0.10

 Program statistics:

 Available memory in ccsd:                39999164
 Min. memory needed in ccsd:                  8005
 Max. memory used in ccsd:                    8374
 Max. memory used in cckext:                 38906 (29 integral passes)



 **********************************************************************************************************************************
 DATASETS  * FILE   NREC   LENGTH (MB)   RECORD NAMES
              1      20       30.02       500      700      610      900      950      970     1000      129      960     1100   
                                          VAR     GEOM    BASINP   SYMINP    ZMAT    AOBASIS   BASIS     P2S    ABASIS      S 
                                         1400     1410     1200     1210     1080     1600     1650     1300     1700     1380   
                                           T        V       H0       H01     AOSYM     SMH    MOLCAS    ERIS     OPER     JKOP   

              2       4        2.75       700     1000      520     2150   
                                         GEOM     BASIS   MCVARS    BCCD   

              3       5       14.77       500      610      700     1000     2100   
                                          VAR    BASINP    GEOM     BASIS     RHF  

 PROGRAMS   *        TOTAL      BCCD       INT   RESTART
 CPU TIMES  *         0.55      0.21      0.22      0.01
 REAL TIME  *         0.74 SEC
 DISK USED  *        49.44 MB
 **********************************************************************************************************************************

 Dump information in style XML to orbitals.xml                                                                    

 Variables will not be exported.
 Molecular orbitals read from record     2150.2  Type=BCCD/BRUECKNER (state 1.1)
 Occupation numbers read from record     2150.2  Type=BCCD/BRUECKNER (state 1.1)

 No orbital energies found for orbital set 0

 No redundancy group numbers found for orbital set 0

 **********************************************************************************************************************************

 BCCD/6-31G energy=    -14.893313880928

            BCCD
    -14.89331388
 **********************************************************************************************************************************
 Molpro calculation terminated
