
 Primary working directories    : /scr/yuriaoto/job.023651/molpro.Kxq5CiCkI8
 Secondary working directories  : /scr/yuriaoto/job.023651/molpro.Kxq5CiCkI8
 Wavefunction directory         : /scr/yuriaoto/job.023651/
 Main file repository           : /scr/yuriaoto/job.023651/molpro.Kxq5CiCkI8/

 id        : yuriaoto

 Nodes             nprocs
 t-rex.ufabc.int.br    1

 Using customized tuning parameters: mindgm=8; mindgv=16; mindgc=1; mindgr=1; noblas=0; minvec=7
 default implementation of scratch files=df  


 Variables initialized (933), CPU time= 0.00 sec
 ***,
 memory,40,m
 gprint,orbital,basis,civector
 gthresh,printci=0.0,thrprint=0
 file,3,wfu.dat,old
 
 {bccd,SAVEORB=2150.2,print,CC_NORM_MAX=10000.0
 thresh,printci=0.0,ENERGY=1.0E-10,COEFF=1.0E-12
 print,ref=1
 wf,16,1,0;
 }
 
 {put,xml,orbitals.xml; orbital,2150.2; nosort; novariables}
 
 Commands  initialized (760), CPU time= 0.01 sec, 617 directives.
 Default parameters read. Elapsed time= 0.04 sec

 Checking input...
 Passed
1


                                         ***  PROGRAM SYSTEM MOLPRO  ***
                                       Copyright, TTI GmbH Stuttgart, 2015
                                    Version 2019.2 linked Abr  7 2019 15:10:35


 **********************************************************************************************************************************
 LABEL *                                                                                 
  64 bit serial version                                                                  DATE: 05-Jun-20          TIME: 23:11:44  
 **********************************************************************************************************************************

 SHA1:             3a8a58c585c929645742fb5a1b7541a4ad1da699
 **********************************************************************************************************************************


 THRESHOLDS:

 ZERO    =  1.00D-12  ONEINT  =  1.00D-12  TWOINT  =  1.00D-11  PREFAC  =  1.00D-14  XXXXXX  =  1.00D-09  EORDER  =  1.00D-04
 ENERGY  =  0.00D+00  ETEST   =  0.00D+00  EDENS   =  0.00D+00  THRDEDEF=  1.00D-06  GRADIENT=  1.00D-02  STEP    =  1.00D-03
 ORBITAL =  1.00D-05  CIVEC   =  1.00D-05  COEFF   =  1.00D-04  PRINTCI =  0.00D+00  PUNCHCI =  9.90D+01  OPTGRAD =  3.00D-04
 OPTENERG=  1.00D-06  OPTSTEP =  3.00D-04  THRGRAD =  1.00D-10  COMPRESS=  1.00D-11  VARMIN  =  1.00D-07  VARMAX  =  1.00D-03
 THRDOUB =  0.00D+00  THRDIV  =  1.00D-05  THRRED  =  1.00D-07  THRPSP  =  1.00D+00  THRDC   =  1.00D-10  THRCS   =  1.00D-10
 THRNRM  =  1.00D-08  THREQ   =  0.00D+00  THRDE   =  1.00D+00  THRREF  =  1.00D-05  SPARFAC =  1.00D+00  THRDLP  =  1.00D-07
 THRDIA  =  1.00D-10  THRDLS  =  1.00D-07  THRGPS  =  0.00D+00  THRKEX  =  0.00D+00  THRDIS  =  2.00D-01  THRVAR  =  1.00D-10
 THRLOC  =  1.00D-06  THRGAP  =  1.00D-06  THRLOCT = -1.00D+00  THRGAPT = -1.00D+00  THRORB  =  1.00D-06  THRMLTP =  0.00D+00
 THRCPQCI=  1.00D-10  KEXTA   =  0.00D+00  THRCOARS=  0.00D+00  SYMTOL  =  1.00D-06  GRADTOL =  1.00D-06  THROVL  =  1.00D-08
 THRORTH =  1.00D-08  GRID    =  1.00D-06  GRIDMAX =  1.00D-03  DTMAX   =  0.00D+00  THROCCDE=  1.00D-01  THROCCDE=  1.00D-01
 THRPRINT=  0.00D+00


 Variable memory set to   40000000 words,  buffer space 



 Permanent file  3  wfu.dat  assigned.  Implementation=df    Size= 14.20 MB


 PROGRAM * RESTART 


 Reading variables from file 3

 _FNUC           =      0.00000000
 _BASIS          =    6-31G
 _NELEC          =     16.00000000
 _PROGRAM        =    RHF-SCF
 _DMZ            =      0.00000000
 _DMX_SCF        =      0.00000000
 _DMY_SCF        =      0.00000000
 _DMZ_SCF        =      0.00000000
 _HOMO           =      1.80000000
 _EHOMO          =     -0.90875643
 _LUMO           =      2.10000000
 _ELUMO          =      1.32776838
 _ENERGY         =    -22.84126352
 _ENERGY_METHOD  =    RHF
 _ENERGY_BASIS   =    6-31G
 _ENUC           =     16.08323531
 _EPS1(1:2)      =     -0.91968069     1.32776838
 _EPS2(1:2)      =     -0.91590815     1.37584569
 _EPS3(1:2)      =     -0.91590815     1.37584569
 _EPS4(1:2)      =     -0.91226826     1.42523808
 _EPS5(1:2)      =     -0.91590815     1.37584569
 _EPS6(1:2)      =     -0.91226826     1.42523808
 _EPS7(1:2)      =     -0.91226826     1.42523808
 _EPS8(1:2)      =     -0.90875643     1.47600363
 _IPROC_MPP      =      0.00000000
 _IPROC_MPPX     =      0.00000000
 _ORBITAL        =   2100.30000000
 _STATUS         =      1.00000000
 _DATE           =    23-Mar-20
 _LASTORB        =    RHF
 _OUTPUT         =    /scr/yuriaoto/job.022845/RHF.xml
 _PGROUP         =    D2h 
 _TIME           =    15:30:58
 R               =      1.50000000

 Geometry written to block  1 of record 700


 **********************************************************************************************************************************
 DATASETS  * FILE   NREC   LENGTH (MB)   RECORD NAMES
              3       5       14.89       500      610      700     1000     2100   
                                          VAR    BASINP    GEOM     BASIS     RHF  

 PROGRAMS   *        TOTAL   RESTART
 CPU TIMES  *         0.12      0.02
 REAL TIME  *         0.14 SEC
 DISK USED  *        26.98 MB
 **********************************************************************************************************************************


 Recomputing integrals since basis changed


 Using spherical harmonics

 Library entry HE     S 6-31G                selected for orbital group  1


 PROGRAM * SEWARD (Integral evaluation for generally contracted gaussian basis sets)     Author: Roland Lindh, 1990

 Geometry written to block  1 of record 700


 Point group  D2h 



 ATOMIC COORDINATES

 NR  ATOM    CHARGE       X              Y              Z

   1  HE1     2.00    2.834589187    2.834589187    2.834589187
   2  HE2     2.00   -2.834589187   -2.834589187    2.834589187
   3  HE3     2.00    2.834589187   -2.834589187    2.834589187
   4  HE4     2.00   -2.834589187    2.834589187    2.834589187
   5  HE5     2.00    2.834589187    2.834589187   -2.834589187
   6  HE6     2.00   -2.834589187   -2.834589187   -2.834589187
   7  HE7     2.00    2.834589187   -2.834589187   -2.834589187
   8  HE8     2.00   -2.834589187    2.834589187   -2.834589187


 BASIS DATA

   Nr Sym  Nuc  Type         Exponents   Contraction coefficients

    1.1 Ag    1  1s          38.421634     0.023766
              2  1s           5.778030     0.154679
              3  1s           1.241774     0.469630
              4  1s    
              5  1s    
              6  1s    
              7  1s    
              8  1s    
    2.1 Ag    1  1s           0.297964     1.000000
              2  1s    
              3  1s    
              4  1s    
              5  1s    
              6  1s    
              7  1s    
              8  1s    
    1.2 B3u   1  1s          38.421634     0.023766
              2 -1s           5.778030     0.154679
              3  1s           1.241774     0.469630
              4 -1s    
              5  1s    
              6 -1s    
              7  1s    
              8 -1s    
    2.2 B3u   1  1s           0.297964     1.000000
              2 -1s    
              3  1s    
              4 -1s    
              5  1s    
              6 -1s    
              7  1s    
              8 -1s    
    1.3 B2u   1  1s          38.421634     0.023766
              2 -1s           5.778030     0.154679
              3 -1s           1.241774     0.469630
              4  1s    
              5  1s    
              6 -1s    
              7 -1s    
              8  1s    
    2.3 B2u   1  1s           0.297964     1.000000
              2 -1s    
              3 -1s    
              4  1s    
              5  1s    
              6 -1s    
              7 -1s    
              8  1s    
    1.4 B1g   1  1s          38.421634     0.023766
              2  1s           5.778030     0.154679
              3 -1s           1.241774     0.469630
              4 -1s    
              5  1s    
              6  1s    
              7 -1s    
              8 -1s    
    2.4 B1g   1  1s           0.297964     1.000000
              2  1s    
              3 -1s    
              4 -1s    
              5  1s    
              6  1s    
              7 -1s    
              8 -1s    
    1.5 B1u   1  1s          38.421634     0.023766
              2  1s           5.778030     0.154679
              3  1s           1.241774     0.469630
              4  1s    
              5 -1s    
              6 -1s    
              7 -1s    
              8 -1s    
    2.5 B1u   1  1s           0.297964     1.000000
              2  1s    
              3  1s    
              4  1s    
              5 -1s    
              6 -1s    
              7 -1s    
              8 -1s    
    1.6 B2g   1  1s          38.421634     0.023766
              2 -1s           5.778030     0.154679
              3  1s           1.241774     0.469630
              4 -1s    
              5 -1s    
              6  1s    
              7 -1s    
              8  1s    
    2.6 B2g   1  1s           0.297964     1.000000
              2 -1s    
              3  1s    
              4 -1s    
              5 -1s    
              6  1s    
              7 -1s    
              8  1s    
    1.7 B3g   1  1s          38.421634     0.023766
              2 -1s           5.778030     0.154679
              3 -1s           1.241774     0.469630
              4  1s    
              5 -1s    
              6  1s    
              7  1s    
              8 -1s    
    2.7 B3g   1  1s           0.297964     1.000000
              2 -1s    
              3 -1s    
              4  1s    
              5 -1s    
              6  1s    
              7  1s    
              8 -1s    
    1.8 Au    1  1s          38.421634     0.023766
              2  1s           5.778030     0.154679
              3 -1s           1.241774     0.469630
              4 -1s    
              5 -1s    
              6 -1s    
              7  1s    
              8  1s    
    2.8 Au    1  1s           0.297964     1.000000
              2  1s    
              3 -1s    
              4 -1s    
              5 -1s    
              6 -1s    
              7  1s    
              8  1s    

 NUCLEAR CHARGE:                   16
 NUMBER OF PRIMITIVE AOS:          32
 NUMBER OF SYMMETRY AOS:           32
 NUMBER OF CONTRACTIONS:           16   (    2Ag  +    2B3u +    2B2u +    2B1g +    2B1u +    2B2g +    2B3g +    2Au  )
 NUMBER OF CORE ORBITALS:           0   (    0Ag  +    0B3u +    0B2u +    0B1g +    0B1u +    0B2g +    0B3g +    0Au  )
 NUMBER OF VALENCE ORBITALS:        8   (    1Ag  +    1B3u +    1B2u +    1B1g +    1B1u +    1B2g +    1B3g +    1Au  )


 NUCLEAR REPULSION ENERGY   16.08323531

 Eigenvalues of metric

         1 0.378E+00 0.165E+01
         2 0.370E+00 0.164E+01
         3 0.370E+00 0.164E+01
         4 0.362E+00 0.163E+01
         5 0.370E+00 0.164E+01
         6 0.362E+00 0.163E+01
         7 0.362E+00 0.163E+01
         8 0.354E+00 0.162E+01


 Contracted 2-electron integrals neglected if value below      1.0D-11
 AO integral compression algorithm  1   Integral accuracy      1.0D-11

     0.262 MB (compressed) written to integral file (100.0%)


 NUMBER OF SORTED TWO-ELECTRON INTEGRALS:       1476.     BUFFER LENGTH:  32768
 NUMBER OF SEGMENTS:   1  SEGMENT LENGTH:       1476      RECORD LENGTH: 524288

 Memory used in sort:       0.56 MW

 SORT1 READ        8192. AND WROTE        1476. INTEGRALS IN      1 RECORDS. CPU TIME:     0.00 SEC, REAL TIME:     0.00 SEC
 SORT2 READ        1476. AND WROTE        1476. INTEGRALS IN      1 RECORDS. CPU TIME:     0.01 SEC, REAL TIME:     0.01 SEC

 FILE SIZES:   FILE 1:    30.3 MBYTE,  FILE 4:     4.2 MBYTE,   TOTAL:     34.6 MBYTE

 OPERATOR DM      FOR CENTER  0  COORDINATES:    0.000000    0.000000    0.000000


 **********************************************************************************************************************************
 DATASETS  * FILE   NREC   LENGTH (MB)   RECORD NAMES
              1      19       30.08       500      700      610      900      950      970     1000      129      960     1100   
                                          VAR     GEOM    BASINP   SYMINP    ZMAT    AOBASIS   BASIS     P2S    ABASIS      S 
                                         1400     1410     1200     1210     1080     1600     1650     1300     1700   
                                           T        V       H0       H01     AOSYM     SMH    MOLCAS    ERIS     OPER   

              3       5       14.89       500      610      700     1000     2100   
                                          VAR    BASINP    GEOM     BASIS     RHF  

 PROGRAMS   *        TOTAL       INT   RESTART
 CPU TIMES  *         0.25      0.12      0.02
 REAL TIME  *         0.38 SEC
 DISK USED  *        49.79 MB
 **********************************************************************************************************************************


 PROGRAM * BCCD (Closed-shell Brueckner coupled-cluster)     Authors: C. Hampel, H.-J. Werner, 1991, M. Deegan, P.J. Knowles, 1992


 Input parameters for THRESH:

 ENERGY   =    1.00D-10
 COEFF    =    1.00D-12
 PRINTCI  =    0.000000
 THRPRINT =    0.000000

 Convergence thresholds:  THRVAR = 1.00D-24  THRDEN = 1.00D-10

 Number of closed-shell orbitals:   8 (   1   1   1   1   1   1   1   1 )
 Number of external orbitals:       8 (   1   1   1   1   1   1   1   1 )

 Molecular orbitals read from record     2100.3  Type=RHF/CANONICAL (state 1.1)

 Number of N-1 electron functions:               8
 Number of N-2 electron functions:              36
 Number of singly external CSFs:                 8
 Number of doubly external CSFs:               288
 Total number of CSFs:                         297

 Brueckner orbitals will be computed and saved on record    2150.2

 Length of J-op  integral file:               0.00 MB
 Length of K-op  integral file:               0.03 MB

 Integral transformation finished. Total CPU:   0.00 sec, npass=  1  Memory used:   0.07 MW

 Reference energy:                    -22.84126352

 MP2 singles energy:                   -0.00000000
 MP2 singlet pair energy:              -0.08960819
 MP2 triplet pair energy:              -0.00000000
 MP2 correlation energy:               -0.08960820
 MP2 total energy:                    -22.93087172

 SCS-MP2 correlation energy:           -0.10752983   (PS=  1.200000  PT=  0.333333)
 SCS-MP2 total energy:                -22.94879336

 ITER.      SQ.NORM     CORR.ENERGY   TOTAL ENERGY   ENERGY CHANGE        DEN1      VAR(S)    VAR(P)  DIIS     TIME  TIME/IT
   1      1.02993751    -0.11788746   -22.95915098    -0.02827927    -0.02176487  0.24D-04  0.11D-02  1  1     0.02     0.01
   2      1.03475265    -0.11992452   -22.96113705    -0.00203706    -0.00873823  0.40D-05  0.92D-04  2  2     0.03     0.01
   3      1.03474362    -0.12014788   -22.96128567    -0.00022337    -0.00003799  0.23D-07  0.64D-09  3  3     0.04     0.01
   4      1.03474509    -0.12015419   -22.96128577    -0.00000630    -0.00000545  0.22D-10  0.11D-10  4  4     0.05     0.01
   5      1.03474477    -0.12015398   -22.96128575     0.00000021     0.00000064  0.15D-11  0.74D-12  5  5     0.05     0.01
   6      1.03474472    -0.12015402   -22.96128576    -0.00000004     0.00000007  0.39D-13  0.11D-13  6  6     0.06     0.01
   7      1.03474473    -0.12015403   -22.96128576    -0.00000001    -0.00000001  0.18D-15  0.21D-15  6  1     0.07     0.01
   8      1.03474473    -0.12015403   -22.96128576     0.00000000     0.00000000  0.58D-20  0.15D-17  6  2     0.07     0.01
   9      1.03474473    -0.12015403   -22.96128576    -0.00000000     0.00000000  0.13D-20  0.44D-19  6  3     0.08     0.01
  10      1.03474473    -0.12015403   -22.96128576     0.00000000     0.00000000  0.12D-22  0.46D-22  6  4     0.09     0.01
  11      1.03474473    -0.12015403   -22.96128576     0.00000000     0.00000000  0.72D-24  0.22D-23  6  6     0.09     0.01
  12      1.03474473    -0.12015403   -22.96128576     0.00000000     0.00000000  0.17D-25  0.51D-25  6  5     0.10     0.01

 Norm of t1 vector:      0.00000000      S-energy:    -0.00000000      T1 diagnostic:  0.00000000

 Orbital rotation generators (print threshold =  0.000E+00):

         I         SYM. A    A   T(IA)

         1         1         1      0.00227899
         2         2         1      0.00206032
         3         3         1      0.00206032
         4         4         1      0.00184913
         5         5         1      0.00206032
         6         6         1      0.00184913
         7         7         1      0.00184913
         8         8         1      0.00164531

 Doubles amplitudes (print threshold =  0.000E+00):

         I         J         SYM. A    SYM. B    A         B      T(IJ, AB)

         1         1         1         1         1         1     -0.00852098
         1         1         2         2         1         1     -0.00823411
         1         1         3         3         1         1     -0.00823411
         1         1         4         4         1         1     -0.00795895
         1         1         5         5         1         1     -0.00823411
         1         1         6         6         1         1     -0.00795895
         1         1         7         7         1         1     -0.00795895
         1         1         8         8         1         1     -0.00769501
         2         2         1         1         1         1     -0.00862189
         2         2         2         2         1         1     -0.00833021
         2         2         3         3         1         1     -0.00832981
         2         2         4         4         1         1     -0.00805090
         2         2         5         5         1         1     -0.00832981
         2         2         6         6         1         1     -0.00805090
         2         2         7         7         1         1     -0.00805029
         2         2         8         8         1         1     -0.00778308
         3         3         1         1         1         1     -0.00862189
         3         3         2         2         1         1     -0.00832981
         3         3         3         3         1         1     -0.00833021
         3         3         4         4         1         1     -0.00805090
         3         3         5         5         1         1     -0.00832981
         3         3         6         6         1         1     -0.00805029
         3         3         7         7         1         1     -0.00805090
         3         3         8         8         1         1     -0.00778308
         4         4         1         1         1         1     -0.00872046
         4         4         2         2         1         1     -0.00842436
         4         4         3         3         1         1     -0.00842436
         4         4         4         4         1         1     -0.00814059
         4         4         5         5         1         1     -0.00842380
         4         4         6         6         1         1     -0.00814017
         4         4         7         7         1         1     -0.00814017
         4         4         8         8         1         1     -0.00786881
         5         5         1         1         1         1     -0.00862189
         5         5         2         2         1         1     -0.00832981
         5         5         3         3         1         1     -0.00832981
         5         5         4         4         1         1     -0.00805029
         5         5         5         5         1         1     -0.00833021
         5         5         6         6         1         1     -0.00805090
         5         5         7         7         1         1     -0.00805090
         5         5         8         8         1         1     -0.00778308
         6         6         1         1         1         1     -0.00872046
         6         6         2         2         1         1     -0.00842436
         6         6         3         3         1         1     -0.00842380
         6         6         4         4         1         1     -0.00814017
         6         6         5         5         1         1     -0.00842436
         6         6         6         6         1         1     -0.00814059
         6         6         7         7         1         1     -0.00814017
         6         6         8         8         1         1     -0.00786881
         7         7         1         1         1         1     -0.00872046
         7         7         2         2         1         1     -0.00842380
         7         7         3         3         1         1     -0.00842436
         7         7         4         4         1         1     -0.00814017
         7         7         5         5         1         1     -0.00842436
         7         7         6         6         1         1     -0.00814017
         7         7         7         7         1         1     -0.00814059
         7         7         8         8         1         1     -0.00786881
         8         8         1         1         1         1     -0.00881640
         8         8         2         2         1         1     -0.00851618
         8         8         3         3         1         1     -0.00851618
         8         8         4         4         1         1     -0.00822838
         8         8         5         5         1         1     -0.00851618
         8         8         6         6         1         1     -0.00822838
         8         8         7         7         1         1     -0.00822838
         8         8         8         8         1         1     -0.00795251
         2         1         1         2         1         1     -0.00842412
         2         1         2         1         1         1     -0.00842474
         2         1         3         4         1         1     -0.00814113
         2         1         4         3         1         1     -0.00814172
         2         1         5         6         1         1     -0.00814113
         2         1         6         5         1         1     -0.00814172
         2         1         7         8         1         1     -0.00786971
         2         1         8         7         1         1     -0.00787027
         4         3         1         2         1         1     -0.00852175
         4         3         2         1         1         1     -0.00852233
         4         3         3         4         1         1     -0.00823395
         4         3         4         3         1         1     -0.00823451
         4         3         5         6         1         1     -0.00823399
         4         3         6         5         1         1     -0.00823423
         4         3         7         8         1         1     -0.00795855
         4         3         8         7         1         1     -0.00795903
         6         5         1         2         1         1     -0.00852175
         6         5         2         1         1         1     -0.00852233
         6         5         3         4         1         1     -0.00823399
         6         5         4         3         1         1     -0.00823423
         6         5         5         6         1         1     -0.00823395
         6         5         6         5         1         1     -0.00823451
         6         5         7         8         1         1     -0.00795855
         6         5         8         7         1         1     -0.00795903
         8         7         1         2         1         1     -0.00861692
         8         7         2         1         1         1     -0.00861754
         8         7         3         4         1         1     -0.00832497
         8         7         4         3         1         1     -0.00832554
         8         7         5         6         1         1     -0.00832497
         8         7         6         5         1         1     -0.00832554
         8         7         7         8         1         1     -0.00804511
         8         7         8         7         1         1     -0.00804564
         3         1         1         3         1         1     -0.00842412
         3         1         2         4         1         1     -0.00814113
         3         1         3         1         1         1     -0.00842474
         3         1         4         2         1         1     -0.00814172
         3         1         5         7         1         1     -0.00814113
         3         1         6         8         1         1     -0.00786971
         3         1         7         5         1         1     -0.00814172
         3         1         8         6         1         1     -0.00787027
         4         2         1         3         1         1     -0.00852175
         4         2         2         4         1         1     -0.00823395
         4         2         3         1         1         1     -0.00852233
         4         2         4         2         1         1     -0.00823451
         4         2         5         7         1         1     -0.00823399
         4         2         6         8         1         1     -0.00795855
         4         2         7         5         1         1     -0.00823423
         4         2         8         6         1         1     -0.00795903
         7         5         1         3         1         1     -0.00852175
         7         5         2         4         1         1     -0.00823399
         7         5         3         1         1         1     -0.00852233
         7         5         4         2         1         1     -0.00823423
         7         5         5         7         1         1     -0.00823395
         7         5         6         8         1         1     -0.00795855
         7         5         7         5         1         1     -0.00823451
         7         5         8         6         1         1     -0.00795903
         8         6         1         3         1         1     -0.00861692
         8         6         2         4         1         1     -0.00832497
         8         6         3         1         1         1     -0.00861754
         8         6         4         2         1         1     -0.00832554
         8         6         5         7         1         1     -0.00832497
         8         6         6         8         1         1     -0.00804511
         8         6         7         5         1         1     -0.00832554
         8         6         8         6         1         1     -0.00804564
         3         2         1         4         1         1     -0.00832889
         3         2         2         3         1         1     -0.00833039
         3         2         3         2         1         1     -0.00832971
         3         2         4         1         1         1     -0.00832889
         3         2         5         8         1         1     -0.00804967
         3         2         6         7         1         1     -0.00805087
         3         2         7         6         1         1     -0.00805049
         3         2         8         5         1         1     -0.00804967
         4         1         1         4         1         1     -0.00832587
         4         1         2         3         1         1     -0.00832760
         4         1         3         2         1         1     -0.00832760
         4         1         4         1         1         1     -0.00832781
         4         1         5         8         1         1     -0.00804684
         4         1         6         7         1         1     -0.00804850
         4         1         7         6         1         1     -0.00804850
         4         1         8         5         1         1     -0.00804866
         7         6         1         4         1         1     -0.00842319
         7         6         2         3         1         1     -0.00842438
         7         6         3         2         1         1     -0.00842404
         7         6         4         1         1         1     -0.00842319
         7         6         5         8         1         1     -0.00813929
         7         6         6         7         1         1     -0.00814076
         7         6         7         6         1         1     -0.00814008
         7         6         8         5         1         1     -0.00813929
         8         5         1         4         1         1     -0.00842030
         8         5         2         3         1         1     -0.00842200
         8         5         3         2         1         1     -0.00842200
         8         5         4         1         1         1     -0.00842219
         8         5         5         8         1         1     -0.00813648
         8         5         6         7         1         1     -0.00813812
         8         5         7         6         1         1     -0.00813812
         8         5         8         5         1         1     -0.00813827
         5         1         1         5         1         1     -0.00842412
         5         1         2         6         1         1     -0.00814113
         5         1         3         7         1         1     -0.00814113
         5         1         4         8         1         1     -0.00786971
         5         1         5         1         1         1     -0.00842474
         5         1         6         2         1         1     -0.00814172
         5         1         7         3         1         1     -0.00814172
         5         1         8         4         1         1     -0.00787027
         6         2         1         5         1         1     -0.00852175
         6         2         2         6         1         1     -0.00823395
         6         2         3         7         1         1     -0.00823399
         6         2         4         8         1         1     -0.00795855
         6         2         5         1         1         1     -0.00852233
         6         2         6         2         1         1     -0.00823451
         6         2         7         3         1         1     -0.00823423
         6         2         8         4         1         1     -0.00795903
         7         3         1         5         1         1     -0.00852175
         7         3         2         6         1         1     -0.00823399
         7         3         3         7         1         1     -0.00823395
         7         3         4         8         1         1     -0.00795855
         7         3         5         1         1         1     -0.00852233
         7         3         6         2         1         1     -0.00823423
         7         3         7         3         1         1     -0.00823451
         7         3         8         4         1         1     -0.00795903
         8         4         1         5         1         1     -0.00861692
         8         4         2         6         1         1     -0.00832497
         8         4         3         7         1         1     -0.00832497
         8         4         4         8         1         1     -0.00804511
         8         4         5         1         1         1     -0.00861754
         8         4         6         2         1         1     -0.00832554
         8         4         7         3         1         1     -0.00832554
         8         4         8         4         1         1     -0.00804564
         5         2         1         6         1         1     -0.00832889
         5         2         2         5         1         1     -0.00833039
         5         2         3         8         1         1     -0.00804967
         5         2         4         7         1         1     -0.00805087
         5         2         5         2         1         1     -0.00832971
         5         2         6         1         1         1     -0.00832889
         5         2         7         4         1         1     -0.00805049
         5         2         8         3         1         1     -0.00804967
         6         1         1         6         1         1     -0.00832587
         6         1         2         5         1         1     -0.00832760
         6         1         3         8         1         1     -0.00804684
         6         1         4         7         1         1     -0.00804850
         6         1         5         2         1         1     -0.00832760
         6         1         6         1         1         1     -0.00832781
         6         1         7         4         1         1     -0.00804850
         6         1         8         3         1         1     -0.00804866
         7         4         1         6         1         1     -0.00842319
         7         4         2         5         1         1     -0.00842438
         7         4         3         8         1         1     -0.00813929
         7         4         4         7         1         1     -0.00814076
         7         4         5         2         1         1     -0.00842404
         7         4         6         1         1         1     -0.00842319
         7         4         7         4         1         1     -0.00814008
         7         4         8         3         1         1     -0.00813929
         8         3         1         6         1         1     -0.00842030
         8         3         2         5         1         1     -0.00842200
         8         3         3         8         1         1     -0.00813648
         8         3         4         7         1         1     -0.00813812
         8         3         5         2         1         1     -0.00842200
         8         3         6         1         1         1     -0.00842219
         8         3         7         4         1         1     -0.00813812
         8         3         8         3         1         1     -0.00813827
         5         3         1         7         1         1     -0.00832889
         5         3         2         8         1         1     -0.00804967
         5         3         3         5         1         1     -0.00833039
         5         3         4         6         1         1     -0.00805087
         5         3         5         3         1         1     -0.00832971
         5         3         6         4         1         1     -0.00805049
         5         3         7         1         1         1     -0.00832889
         5         3         8         2         1         1     -0.00804967
         6         4         1         7         1         1     -0.00842319
         6         4         2         8         1         1     -0.00813929
         6         4         3         5         1         1     -0.00842438
         6         4         4         6         1         1     -0.00814076
         6         4         5         3         1         1     -0.00842404
         6         4         6         4         1         1     -0.00814008
         6         4         7         1         1         1     -0.00842319
         6         4         8         2         1         1     -0.00813929
         7         1         1         7         1         1     -0.00832587
         7         1         2         8         1         1     -0.00804684
         7         1         3         5         1         1     -0.00832760
         7         1         4         6         1         1     -0.00804850
         7         1         5         3         1         1     -0.00832760
         7         1         6         4         1         1     -0.00804850
         7         1         7         1         1         1     -0.00832781
         7         1         8         2         1         1     -0.00804866
         8         2         1         7         1         1     -0.00842030
         8         2         2         8         1         1     -0.00813648
         8         2         3         5         1         1     -0.00842200
         8         2         4         6         1         1     -0.00813812
         8         2         5         3         1         1     -0.00842200
         8         2         6         4         1         1     -0.00813812
         8         2         7         1         1         1     -0.00842219
         8         2         8         2         1         1     -0.00813827
         5         4         1         8         1         1     -0.00823297
         5         4         2         7         1         1     -0.00823481
         5         4         3         6         1         1     -0.00823481
         5         4         4         5         1         1     -0.00823457
         5         4         5         4         1         1     -0.00823401
         5         4         6         3         1         1     -0.00823359
         5         4         7         2         1         1     -0.00823359
         5         4         8         1         1         1     -0.00823159
         6         3         1         8         1         1     -0.00823159
         6         3         2         7         1         1     -0.00823359
         6         3         3         6         1         1     -0.00823457
         6         3         4         5         1         1     -0.00823481
         6         3         5         4         1         1     -0.00823359
         6         3         6         3         1         1     -0.00823401
         6         3         7         2         1         1     -0.00823481
         6         3         8         1         1         1     -0.00823297
         7         2         1         8         1         1     -0.00823159
         7         2         2         7         1         1     -0.00823457
         7         2         3         6         1         1     -0.00823359
         7         2         4         5         1         1     -0.00823481
         7         2         5         4         1         1     -0.00823359
         7         2         6         3         1         1     -0.00823481
         7         2         7         2         1         1     -0.00823401
         7         2         8         1         1         1     -0.00823297
         8         1         1         8         1         1     -0.00822647
         8         1         2         7         1         1     -0.00822923
         8         1         3         6         1         1     -0.00822923
         8         1         4         5         1         1     -0.00823052
         8         1         5         4         1         1     -0.00822923
         8         1         6         3         1         1     -0.00823052
         8         1         7         2         1         1     -0.00823052
         8         1         8         1         1         1     -0.00823030


 RESULTS
 =======

  Reference energy                    -22.841131731055
  BCCD singlet pair energy             -0.120154025556
  BCCD triplet pair energy             -0.000000000993
  BCCD correlation energy              -0.120154026548

 !BCCD total energy                   -22.961285757604

 Approximate expectation values using Brueckner orbitals

 !BCCD(ref) STATE  1.1 Dipole momen     0.00000000     0.00000000     0.00000000
 Dipole moment /Debye                   0.00000000     0.00000000     0.00000000

 Brueckner orbitals saved on record           2150.2 (orbital set 1)
 Brueckner density (ref) saved on record      2150.2 (density set 1)

 Brueckner orbitals
 ==================

   Orb     Occ           Coefficients

                         1 1s      1 1s   

   1.1    2.0000000    0.583529  0.518323

                         1 1s      1 1s   

   1.2    2.0000000    0.587812  0.516661

                         1 1s      1 1s   

   1.3    2.0000000    0.587812  0.516661

                         1 1s      1 1s   

   1.4    2.0000000    0.591939  0.515072

                         1 1s      1 1s   

   1.5    2.0000000    0.587812  0.516661

                         1 1s      1 1s   

   1.6    2.0000000    0.591939  0.515072

                         1 1s      1 1s   

   1.7    2.0000000    0.591939  0.515072

                         1 1s      1 1s   

   1.8    2.0000000    0.595915  0.513558

 Timing summary (sec):

 STEP                 CPU(USER)    SYS     CPU(TOT)    WALL
 Transformation          0.03      0.05      0.08      0.09
 CCSD iterations         0.10      0.04      0.14      0.12

 Program statistics:

 Available memory in ccsd:                39998944
 Min. memory needed in ccsd:                  2743
 Max. memory used in ccsd:                    2743
 Max. memory used in cckext:                 37162 (12 integral passes)



 **********************************************************************************************************************************
 DATASETS  * FILE   NREC   LENGTH (MB)   RECORD NAMES
              1      20       30.11       500      700      610      900      950      970     1000      129      960     1100   
                                          VAR     GEOM    BASINP   SYMINP    ZMAT    AOBASIS   BASIS     P2S    ABASIS      S 
                                         1400     1410     1200     1210     1080     1600     1650     1300     1700     1380   
                                           T        V       H0       H01     AOSYM     SMH    MOLCAS    ERIS     OPER     JKOP   

              2       4        2.86       700     1000      520     2150   
                                         GEOM     BASIS   MCVARS    BCCD   

              3       5       14.89       500      610      700     1000     2100   
                                          VAR    BASINP    GEOM     BASIS     RHF  

 PROGRAMS   *        TOTAL      BCCD       INT   RESTART
 CPU TIMES  *         0.45      0.20      0.12      0.02
 REAL TIME  *         0.67 SEC
 DISK USED  *        49.79 MB
 **********************************************************************************************************************************

 Dump information in style XML to orbitals.xml                                                                    

 Variables will not be exported.
 Molecular orbitals read from record     2150.2  Type=BCCD/BRUECKNER (state 1.1)
 Occupation numbers read from record     2150.2  Type=BCCD/BRUECKNER (state 1.1)

 No orbital energies found for orbital set 0

 No redundancy group numbers found for orbital set 0

 **********************************************************************************************************************************

 BCCD/6-31G energy=    -22.961285757604

            BCCD
    -22.96128576
 **********************************************************************************************************************************
 Molpro calculation terminated
