
 Primary working directories    : /scr/yuriaoto/job.019254/molpro.CjuO8Ov3Fk
 Secondary working directories  : /scr/yuriaoto/job.019254/molpro.CjuO8Ov3Fk
 Wavefunction directory         : /scr/yuriaoto/job.019254/
 Main file repository           : /scr/yuriaoto/job.019254/molpro.CjuO8Ov3Fk/

 id        : yuriaoto

 Nodes             nprocs
 t-rex.ufabc.int.br    1

 Using customized tuning parameters: mindgm=8; mindgv=16; mindgc=1; mindgr=1; noblas=0; minvec=7
 default implementation of scratch files=df  


 Variables initialized (933), CPU time= 0.00 sec
 ***,
 memory,40,m
 gprint,orbital,basis
 gthresh,thrprint=0
 file,3,wfu.dat,old
 
 {fci
 orbital,2100.3
 wf,6,1,0;
 core,0
 }
 
 Commands  initialized (760), CPU time= 0.01 sec, 617 directives.
 Default parameters read. Elapsed time= 0.03 sec

 Checking input...
 Passed
1


                                         ***  PROGRAM SYSTEM MOLPRO  ***
                                       Copyright, TTI GmbH Stuttgart, 2015
                                    Version 2019.2 linked Abr  7 2019 15:10:35


 **********************************************************************************************************************************
 LABEL *                                                                                 
  64 bit serial version                                                                  DATE: 10-Apr-19          TIME: 16:00:14  
 **********************************************************************************************************************************

 SHA1:             3a8a58c585c929645742fb5a1b7541a4ad1da699
 **********************************************************************************************************************************


 THRESHOLDS:

 ZERO    =  1.00D-12  ONEINT  =  1.00D-12  TWOINT  =  1.00D-11  PREFAC  =  1.00D-14  XXXXXX  =  1.00D-09  EORDER  =  1.00D-04
 ENERGY  =  0.00D+00  ETEST   =  0.00D+00  EDENS   =  0.00D+00  THRDEDEF=  1.00D-06  GRADIENT=  1.00D-02  STEP    =  1.00D-03
 ORBITAL =  1.00D-05  CIVEC   =  1.00D-05  COEFF   =  1.00D-04  PRINTCI =  5.00D-02  PUNCHCI =  9.90D+01  OPTGRAD =  3.00D-04
 OPTENERG=  1.00D-06  OPTSTEP =  3.00D-04  THRGRAD =  1.00D-10  COMPRESS=  1.00D-11  VARMIN  =  1.00D-07  VARMAX  =  1.00D-03
 THRDOUB =  0.00D+00  THRDIV  =  1.00D-05  THRRED  =  1.00D-07  THRPSP  =  1.00D+00  THRDC   =  1.00D-10  THRCS   =  1.00D-10
 THRNRM  =  1.00D-08  THREQ   =  0.00D+00  THRDE   =  1.00D+00  THRREF  =  1.00D-05  SPARFAC =  1.00D+00  THRDLP  =  1.00D-07
 THRDIA  =  1.00D-10  THRDLS  =  1.00D-07  THRGPS  =  0.00D+00  THRKEX  =  0.00D+00  THRDIS  =  2.00D-01  THRVAR  =  1.00D-10
 THRLOC  =  1.00D-06  THRGAP  =  1.00D-06  THRLOCT = -1.00D+00  THRGAPT = -1.00D+00  THRORB  =  1.00D-06  THRMLTP =  0.00D+00
 THRCPQCI=  1.00D-10  KEXTA   =  0.00D+00  THRCOARS=  0.00D+00  SYMTOL  =  1.00D-06  GRADTOL =  1.00D-06  THROVL  =  1.00D-08
 THRORTH =  1.00D-08  GRID    =  1.00D-06  GRIDMAX =  1.00D-03  DTMAX   =  0.00D+00  THROCCDE=  1.00D-01  THROCCDE=  1.00D-01
 THRPRINT=  0.00D+00


 Variable memory set to   40000000 words,  buffer space 



 Permanent file  3  wfu.dat  assigned.  Implementation=df    Size= 14.08 MB


 PROGRAM * RESTART 


 Reading variables from file 3

 _FNUC           =      0.00000000
 _BASIS          =    STO-3G
 _NELEC          =      6.00000000
 _PROGRAM        =    RHF-SCF
 _DMX            =      0.00000000
 _DMY            =     -0.00000000
 _DMZ            =      0.00000000
 _DMX_SCF        =      0.00000000
 _DMY_SCF        =     -0.00000000
 _DMZ_SCF        =      0.00000000
 _HOMO           =      3.10000000
 _EHOMO          =     -0.15007102
 _LUMO           =      4.10000000
 _ELUMO          =      0.08336193
 _ENERGY         =    -14.63864283
 _ENERGY_METHOD  =    RHF
 _ENERGY_BASIS   =    STO-3G
 _ENUC           =      1.80000000
 _EPS1(1:10)     =     -2.32975138    -2.32973347    -0.15007102     0.08336193     0.13305715     0.13305715
                        0.15828123     0.24181392     0.24181392     0.47434817
 _IPROC_MPP      =      0.00000000
 _IPROC_MPPX     =      0.00000000
 _ORBITAL        =   2100.30000000
 _STATUS         =      1.00000000
 _LASTORB        =    RHF
 _OUTPUT         =    /scr/yuriaoto/job.019159/Li2__5.0__.xml
 _PGROUP         =    C1  
 _TIME           =    15:36:39
 R               =      5.00000000

 Geometry written to block  1 of record 700


 **********************************************************************************************************************************
 DATASETS  * FILE   NREC   LENGTH (MB)   RECORD NAMES
              3       5       14.77       500      610      700     1000     2100   
                                          VAR    BASINP    GEOM     BASIS     RHF  

 PROGRAMS   *        TOTAL   RESTART
 CPU TIMES  *         0.10      0.02
 REAL TIME  *         0.12 SEC
 DISK USED  *        26.84 MB
 **********************************************************************************************************************************


 Recomputing integrals since basis changed


 Using spherical harmonics

 Library entry LI     S STO-3G               selected for orbital group  1
 Library entry LI     P STO-3G               selected for orbital group  1


 PROGRAM * SEWARD (Integral evaluation for generally contracted gaussian basis sets)     Author: Roland Lindh, 1990

 Geometry written to block  1 of record 700

 Orientation using atomic masses  
 Molecule type: Linear
 Rotational constants:      20.8009354     20.8009354      0.0000000 GHz  (calculated with average atomic masses)

 Point group  C1  



 ATOMIC COORDINATES

 NR  ATOM    CHARGE       X              Y              Z

   1  LI1     3.00    0.000000000    0.000000000   -2.500000000
   2  LI2     3.00    0.000000000    0.000000000    2.500000000

 Bond lengths in Bohr (Angstrom)

 1-2  5.000000000
     ( 2.645886055)


 BASIS DATA

   Nr Sym  Nuc  Type         Exponents   Contraction coefficients

    1.1 A     1  1s          16.119575     0.154329
                              2.936201     0.535328
                              0.794651     0.444635
    2.1 A     1  1s           0.636290    -0.099967
                              0.147860     0.399513
                              0.048089     0.700115
    3.1 A     1  2px          0.636290     0.155916
                              0.147860     0.607684
                              0.048089     0.391957
    4.1 A     1  2py          0.636290     0.155916
                              0.147860     0.607684
                              0.048089     0.391957
    5.1 A     1  2pz          0.636290     0.155916
                              0.147860     0.607684
                              0.048089     0.391957
    6.1 A     2  1s          16.119575     0.154329
                              2.936201     0.535328
                              0.794651     0.444635
    7.1 A     2  1s           0.636290    -0.099967
                              0.147860     0.399513
                              0.048089     0.700115
    8.1 A     2  2px          0.636290     0.155916
                              0.147860     0.607684
                              0.048089     0.391957
    9.1 A     2  2py          0.636290     0.155916
                              0.147860     0.607684
                              0.048089     0.391957
   10.1 A     2  2pz          0.636290     0.155916
                              0.147860     0.607684
                              0.048089     0.391957

 NUCLEAR CHARGE:                    6
 NUMBER OF PRIMITIVE AOS:          30
 NUMBER OF SYMMETRY AOS:           30
 NUMBER OF CONTRACTIONS:           10   (   10A   )
 NUMBER OF CORE ORBITALS:           2   (    2A   )
 NUMBER OF VALENCE ORBITALS:        8   (    8A   )


 NUCLEAR REPULSION ENERGY    1.80000000

 EXTRA SYMMETRY OF AOS IN SYMMETRY 1:   1 1 2 3 1 1 1 2 3 1

 Eigenvalues of metric

         1 0.155E+00 0.713E+00 0.713E+00 0.805E+00 0.846E+00 0.104E+01 0.123E+01 0.129E+01


 Contracted 2-electron integrals neglected if value below      1.0D-11
 AO integral compression algorithm  1   Integral accuracy      1.0D-11

     0.262 MB (compressed) written to integral file ( 65.1%)


 NUMBER OF SORTED TWO-ELECTRON INTEGRALS:       1540.     BUFFER LENGTH:  32768
 NUMBER OF SEGMENTS:   1  SEGMENT LENGTH:       1540      RECORD LENGTH: 524288

 Memory used in sort:       0.56 MW

 SORT1 READ        2389. AND WROTE         512. INTEGRALS IN      1 RECORDS. CPU TIME:     0.00 SEC, REAL TIME:     0.00 SEC
 SORT2 READ         512. AND WROTE        1540. INTEGRALS IN      1 RECORDS. CPU TIME:     0.01 SEC, REAL TIME:     0.01 SEC

 FILE SIZES:   FILE 1:    30.2 MBYTE,  FILE 4:     4.2 MBYTE,   TOTAL:     34.4 MBYTE

 OPERATOR DM      FOR CENTER  0  COORDINATES:    0.000000    0.000000    0.000000


 **********************************************************************************************************************************
 DATASETS  * FILE   NREC   LENGTH (MB)   RECORD NAMES
              1      19       29.95       500      700      610      900      950      970     1000      129      960     1100   
                                          VAR     GEOM    BASINP   SYMINP    ZMAT    AOBASIS   BASIS     P2S    ABASIS      S 
                                         1400     1410     1200     1210     1080     1600     1650     1300     1700   
                                           T        V       H0       H01     AOSYM     SMH    MOLCAS    ERIS     OPER   

              3       5       14.77       500      610      700     1000     2100   
                                          VAR    BASINP    GEOM     BASIS     RHF  

 PROGRAMS   *        TOTAL       INT   RESTART
 CPU TIMES  *         0.23      0.13      0.02
 REAL TIME  *         0.38 SEC
 DISK USED  *        49.42 MB
 **********************************************************************************************************************************


 PROGRAM * FCI (Full CI)     Author: P.J. Knowles, 1984


 Molecular orbitals read from record     2100.3  Type=RHF/CANONICAL (state 1.1)

 Frozen orbitals:              0 (  0  0  0  0  0  0  0  0)
 Active orbitals:             10 ( 10  0  0  0  0  0  0  0)
 Active electrons:             6
 Spin quantum number:          0.0
 Orbital pairs:                    55       0       0       0       0       0       0       0
 Strings:                         120       0       0       0       0       0       0       0
                                  120       0       0       0       0       0       0       0
 Determinants:                          14400               0               0               0
                                            0               0               0               0

 Load integrals                1.1 sec
 Transform integrals           1.1 sec
 Storage for integrals:           3235
 Remaining memory:            39995665

 Core energy:               1.80000000
 Run Hamiltonian processor DAVIDSON
 Symmetry:                   1
 Trial vector:                  0.00
 Result vector:                 0.00
 Maximum iterations:           90
 Convergence threshold:         0.0000100
 RHS vector:                    0.00
 Hamiltonian shift:             0.0000000
 Output threshold:              0.0000000
 Options:                        0
 Number of roots:             1

 Hamiltonian diagonaliser entered at time      1.13

 Initial configuration generated:
       1      1.0000000    -14.6386428

 It  Tr    CPU  Convergence   Energy       Pop     dE(next)

  1   1    1.1  1.00000000   -14.63864283
                                           0.01 -0.04156950 -0.04154850
  2   1    1.1  0.26701348   -14.66523117
                                           0.01 -0.00230400 -0.00229259
  3   1    1.1  0.08143993   -14.66713532
                                           0.02 -0.00026699 -0.00026491
  4   1    1.2  0.02620113   -14.66736500
                                           0.04 -0.00000627 -0.00000620
  5   1    1.2  0.00335613   -14.66737147
                                           0.06 -0.00000048 -0.00000047
  6   1    1.2  0.00117102   -14.66737200
                                           0.09 -0.00000004 -0.00000004
  7   1    1.2  0.00017692   -14.66737204
                                           0.10 -0.00000000 -0.00000000
  8   1    1.2  0.00003042   -14.66737204
                                           0.11 -0.00000000 -0.00000000
  9   1    1.2  0.00000661   -14.66737204


RESULTS FOR STATE  1.1
=====================

 Correlation energy                    -0.028729205347
 !FCI STATE  1.1 Energy               -14.667372039330
 CI Vector (threshold=  0.00    )
       0.953286187228  1  2  3  1  2  3
       0.000000000000  1  2  3  1  2  4
       0.000000000000  1  2  3  1  2  5
       0.000000000000  1  2  3  1  2  6
      -0.043309883640  1  2  3  1  2  7
       0.000000000000  1  2  3  1  2  8
       0.000000000000  1  2  3  1  2  9
       0.000000000000  1  2  3  1  2 10
      -0.000775453744  1  2  3  1  3  4
       0.000000000000  1  2  3  1  3  5
       0.000000000000  1  2  3  1  3  6
       0.000000000000  1  2  3  1  3  7
       0.000000000000  1  2  3  1  3  8
       0.000000000000  1  2  3  1  3  9
      -0.000957187968  1  2  3  1  3 10
       0.000000000000  1  2  3  1  4  5
       0.000000000000  1  2  3  1  4  6
       0.000175512079  1  2  3  1  4  7
       0.000000000000  1  2  3  1  4  8
       0.000000000000  1  2  3  1  4  9
       0.000000000000  1  2  3  1  4 10
       0.000000000000  1  2  3  1  5  6
       0.000000000000  1  2  3  1  5  7
      -0.000188328276  1  2  3  1  5  8
       0.000592147097  1  2  3  1  5  9
       0.000000000000  1  2  3  1  5 10
       0.000000000000  1  2  3  1  6  7
       0.000592147097  1  2  3  1  6  8
       0.000188328276  1  2  3  1  6  9
       0.000000000000  1  2  3  1  6 10
       0.000000000000  1  2  3  1  7  8
       0.000000000000  1  2  3  1  7  9
       0.001677806705  1  2  3  1  7 10
       0.000000000000  1  2  3  1  8  9
       0.000000000000  1  2  3  1  8 10
       0.000000000000  1  2  3  1  9 10
       0.000000000000  1  2  3  2  3  4
       0.000000000000  1  2  3  2  3  5
       0.000000000000  1  2  3  2  3  6
       0.000301325238  1  2  3  2  3  7
       0.000000000000  1  2  3  2  3  8
       0.000000000000  1  2  3  2  3  9
       0.000000000000  1  2  3  2  3 10
       0.000000000000  1  2  3  2  4  5
       0.000000000000  1  2  3  2  4  6
       0.000000000000  1  2  3  2  4  7
       0.000000000000  1  2  3  2  4  8
       0.000000000000  1  2  3  2  4  9
       0.000417886435  1  2  3  2  4 10
       0.000000000000  1  2  3  2  5  6
       0.000000000000  1  2  3  2  5  7
       0.000000000000  1  2  3  2  5  8
       0.000000000000  1  2  3  2  5  9
       0.000000000000  1  2  3  2  5 10
       0.000000000000  1  2  3  2  6  7
       0.000000000000  1  2  3  2  6  8
       0.000000000000  1  2  3  2  6  9
       0.000000000000  1  2  3  2  6 10
       0.000000000000  1  2  3  2  7  8
       0.000000000000  1  2  3  2  7  9
       0.000000000000  1  2  3  2  7 10
       0.000000000000  1  2  3  2  8  9
       0.000000000000  1  2  3  2  8 10
       0.000000000000  1  2  3  2  9 10
       0.000000000000  1  2  3  3  4  5
       0.000000000000  1  2  3  3  4  6
      -0.000062903682  1  2  3  3  4  7
       0.000000000000  1  2  3  3  4  8
       0.000000000000  1  2  3  3  4  9
       0.000000000000  1  2  3  3  4 10
       0.000000000000  1  2  3  3  5  6
       0.000000000000  1  2  3  3  5  7
       0.000017949367  1  2  3  3  5  8
      -0.000056547410  1  2  3  3  5  9
       0.000000000000  1  2  3  3  5 10
       0.000000000000  1  2  3  3  6  7
      -0.000056547410  1  2  3  3  6  8
      -0.000017949367  1  2  3  3  6  9
       0.000000000000  1  2  3  3  6 10
       0.000000000000  1  2  3  3  7  8
       0.000000000000  1  2  3  3  7  9
      -0.000107820919  1  2  3  3  7 10
       0.000000000000  1  2  3  3  8  9
       0.000000000000  1  2  3  3  8 10
       0.000000000000  1  2  3  3  9 10
       0.000000000000  1  2  3  4  5  6
       0.000000000000  1  2  3  4  5  7
       0.000000000000  1  2  3  4  5  8
       0.000000000000  1  2  3  4  5  9
       0.000000000000  1  2  3  4  5 10
       0.000000000000  1  2  3  4  6  7
       0.000000000000  1  2  3  4  6  8
       0.000000000000  1  2  3  4  6  9
       0.000000000000  1  2  3  4  6 10
       0.000000000000  1  2  3  4  7  8
       0.000000000000  1  2  3  4  7  9
       0.000000000000  1  2  3  4  7 10
       0.000000000000  1  2  3  4  8  9
       0.000000000000  1  2  3  4  8 10
       0.000000000000  1  2  3  4  9 10
       0.000000000000  1  2  3  5  6  7
       0.000000000000  1  2  3  5  6  8
       0.000000000000  1  2  3  5  6  9
       0.000000000000  1  2  3  5  6 10
       0.000000769293  1  2  3  5  7  8
      -0.000002411344  1  2  3  5  7  9
       0.000000000000  1  2  3  5  7 10
       0.000000000000  1  2  3  5  8  9
       0.000000000000  1  2  3  5  8 10
       0.000000000000  1  2  3  5  9 10
      -0.000002411344  1  2  3  6  7  8
      -0.000000769293  1  2  3  6  7  9
       0.000000000000  1  2  3  6  7 10
       0.000000000000  1  2  3  6  8  9
       0.000000000000  1  2  3  6  8 10
       0.000000000000  1  2  3  6  9 10
       0.000000000000  1  2  3  7  8  9
       0.000000000000  1  2  3  7  8 10
       0.000000000000  1  2  3  7  9 10
       0.000000000000  1  2  3  8  9 10
       0.000000000000  1  2  4  1  2  3
      -0.142447679409  1  2  4  1  2  4
       0.000000000000  1  2  4  1  2  5
       0.000000000000  1  2  4  1  2  6
       0.000000000000  1  2  4  1  2  7
       0.000000000000  1  2  4  1  2  8
       0.000000000000  1  2  4  1  2  9
      -0.049679331421  1  2  4  1  2 10
       0.000000000000  1  2  4  1  3  4
       0.000000000000  1  2  4  1  3  5
       0.000000000000  1  2  4  1  3  6
      -0.001033449838  1  2  4  1  3  7
       0.000000000000  1  2  4  1  3  8
       0.000000000000  1  2  4  1  3  9
       0.000000000000  1  2  4  1  3 10
       0.000000000000  1  2  4  1  4  5
       0.000000000000  1  2  4  1  4  6
       0.000000000000  1  2  4  1  4  7
       0.000000000000  1  2  4  1  4  8
       0.000000000000  1  2  4  1  4  9
       0.001258783310  1  2  4  1  4 10
       0.000000000000  1  2  4  1  5  6
       0.000000000000  1  2  4  1  5  7
       0.000000000000  1  2  4  1  5  8
       0.000000000000  1  2  4  1  5  9
       0.000000000000  1  2  4  1  5 10
       0.000000000000  1  2  4  1  6  7
       0.000000000000  1  2  4  1  6  8
       0.000000000000  1  2  4  1  6  9
       0.000000000000  1  2  4  1  6 10
       0.000000000000  1  2  4  1  7  8
       0.000000000000  1  2  4  1  7  9
       0.000000000000  1  2  4  1  7 10
       0.000000000000  1  2  4  1  8  9
       0.000000000000  1  2  4  1  8 10
       0.000000000000  1  2  4  1  9 10
       0.001266110129  1  2  4  2  3  4
       0.000000000000  1  2  4  2  3  5
       0.000000000000  1  2  4  2  3  6
       0.000000000000  1  2  4  2  3  7
       0.000000000000  1  2  4  2  3  8
       0.000000000000  1  2  4  2  3  9
       0.002604413196  1  2  4  2  3 10
       0.000000000000  1  2  4  2  4  5
       0.000000000000  1  2  4  2  4  6
      -0.000898000583  1  2  4  2  4  7
       0.000000000000  1  2  4  2  4  8
       0.000000000000  1  2  4  2  4  9
       0.000000000000  1  2  4  2  4 10
       0.000000000000  1  2  4  2  5  6
       0.000000000000  1  2  4  2  5  7
      -0.000083385767  1  2  4  2  5  8
       0.000262196786  1  2  4  2  5  9
       0.000000000000  1  2  4  2  5 10
       0.000000000000  1  2  4  2  6  7
       0.000262196786  1  2  4  2  6  8
       0.000083385767  1  2  4  2  6  9
       0.000000000000  1  2  4  2  6 10
       0.000000000000  1  2  4  2  7  8
       0.000000000000  1  2  4  2  7  9
       0.000612357102  1  2  4  2  7 10
       0.000000000000  1  2  4  2  8  9
       0.000000000000  1  2  4  2  8 10
       0.000000000000  1  2  4  2  9 10
       0.000000000000  1  2  4  3  4  5
       0.000000000000  1  2  4  3  4  6
       0.000000000000  1  2  4  3  4  7
       0.000000000000  1  2  4  3  4  8
       0.000000000000  1  2  4  3  4  9
       0.000002397907  1  2  4  3  4 10
       0.000000000000  1  2  4  3  5  6
       0.000000000000  1  2  4  3  5  7
       0.000000000000  1  2  4  3  5  8
       0.000000000000  1  2  4  3  5  9
       0.000000000000  1  2  4  3  5 10
       0.000000000000  1  2  4  3  6  7
       0.000000000000  1  2  4  3  6  8
       0.000000000000  1  2  4  3  6  9
       0.000000000000  1  2  4  3  6 10
       0.000000000000  1  2  4  3  7  8
       0.000000000000  1  2  4  3  7  9
       0.000000000000  1  2  4  3  7 10
       0.000000000000  1  2  4  3  8  9
       0.000000000000  1  2  4  3  8 10
       0.000000000000  1  2  4  3  9 10
       0.000000000000  1  2  4  4  5  6
       0.000000000000  1  2  4  4  5  7
      -0.000003579459  1  2  4  4  5  8
       0.000011206560  1  2  4  4  5  9
       0.000000000000  1  2  4  4  5 10
       0.000000000000  1  2  4  4  6  7
       0.000011206560  1  2  4  4  6  8
       0.000003579459  1  2  4  4  6  9
       0.000000000000  1  2  4  4  6 10
       0.000000000000  1  2  4  4  7  8
       0.000000000000  1  2  4  4  7  9
       0.000017999697  1  2  4  4  7 10
       0.000000000000  1  2  4  4  8  9
       0.000000000000  1  2  4  4  8 10
       0.000000000000  1  2  4  4  9 10
       0.000000000000  1  2  4  5  6  7
       0.000000000000  1  2  4  5  6  8
       0.000000000000  1  2  4  5  6  9
       0.000000000000  1  2  4  5  6 10
       0.000000000000  1  2  4  5  7  8
       0.000000000000  1  2  4  5  7  9
       0.000000000000  1  2  4  5  7 10
       0.000000000000  1  2  4  5  8  9
      -0.000002685653  1  2  4  5  8 10
       0.000008469961  1  2  4  5  9 10
       0.000000000000  1  2  4  6  7  8
       0.000000000000  1  2  4  6  7  9
       0.000000000000  1  2  4  6  7 10
       0.000000000000  1  2  4  6  8  9
       0.000008469961  1  2  4  6  8 10
       0.000002685653  1  2  4  6  9 10
       0.000000000000  1  2  4  7  8  9
       0.000000000000  1  2  4  7  8 10
       0.000000000000  1  2  4  7  9 10
       0.000000000000  1  2  4  8  9 10
       0.000000000000  1  2  5  1  2  3
       0.000000000000  1  2  5  1  2  4
      -0.162077380593  1  2  5  1  2  5
       0.000000000000  1  2  5  1  2  6
       0.000000000000  1  2  5  1  2  7
       0.000000000000  1  2  5  1  2  8
       0.000000000000  1  2  5  1  2  9
       0.000000000000  1  2  5  1  2 10
       0.000000000000  1  2  5  1  3  4
       0.000000000000  1  2  5  1  3  5
       0.000000000000  1  2  5  1  3  6
       0.000000000000  1  2  5  1  3  7
      -0.000852353717  1  2  5  1  3  8
       0.002680278092  1  2  5  1  3  9
       0.000000000000  1  2  5  1  3 10
      -0.000584818014  1  2  5  1  4  5
       0.000000000000  1  2  5  1  4  6
       0.000000000000  1  2  5  1  4  7
       0.000000000000  1  2  5  1  4  8
       0.000000000000  1  2  5  1  4  9
       0.000000000000  1  2  5  1  4 10
       0.000000000000  1  2  5  1  5  6
       0.000000000000  1  2  5  1  5  7
       0.000000000000  1  2  5  1  5  8
       0.000000000000  1  2  5  1  5  9
       0.000943701281  1  2  5  1  5 10
       0.000000000000  1  2  5  1  6  7
       0.000000000000  1  2  5  1  6  8
       0.000000000000  1  2  5  1  6  9
       0.000000000000  1  2  5  1  6 10
       0.000063614268  1  2  5  1  7  8
      -0.000200113340  1  2  5  1  7  9
       0.000000000000  1  2  5  1  7 10
       0.000000000000  1  2  5  1  8  9
       0.000000000000  1  2  5  1  8 10
       0.000000000000  1  2  5  1  9 10
       0.000000000000  1  2  5  2  3  4
      -0.002684107969  1  2  5  2  3  5
       0.000000000000  1  2  5  2  3  6
       0.000000000000  1  2  5  2  3  7
       0.000000000000  1  2  5  2  3  8
       0.000000000000  1  2  5  2  3  9
       0.000000000000  1  2  5  2  3 10
       0.000000000000  1  2  5  2  4  5
       0.000000000000  1  2  5  2  4  6
       0.000000000000  1  2  5  2  4  7
      -0.000285786231  1  2  5  2  4  8
       0.000898697892  1  2  5  2  4  9
       0.000000000000  1  2  5  2  4 10
       0.000000000000  1  2  5  2  5  6
      -0.000528841342  1  2  5  2  5  7
       0.000000000000  1  2  5  2  5  8
       0.000000000000  1  2  5  2  5  9
       0.000000000000  1  2  5  2  5 10
       0.000000000000  1  2  5  2  6  7
       0.000000000000  1  2  5  2  6  8
       0.000000000000  1  2  5  2  6  9
       0.000000000000  1  2  5  2  6 10
       0.000000000000  1  2  5  2  7  8
       0.000000000000  1  2  5  2  7  9
       0.000000000000  1  2  5  2  7 10
       0.000000000000  1  2  5  2  8  9
       0.000215211956  1  2  5  2  8 10
      -0.000676742574  1  2  5  2  9 10
      -0.000008075881  1  2  5  3  4  5
       0.000000000000  1  2  5  3  4  6
       0.000000000000  1  2  5  3  4  7
       0.000000000000  1  2  5  3  4  8
       0.000000000000  1  2  5  3  4  9
       0.000000000000  1  2  5  3  4 10
       0.000000000000  1  2  5  3  5  6
       0.000000000000  1  2  5  3  5  7
       0.000000000000  1  2  5  3  5  8
       0.000000000000  1  2  5  3  5  9
      -0.000002187595  1  2  5  3  5 10
       0.000000000000  1  2  5  3  6  7
       0.000000000000  1  2  5  3  6  8
       0.000000000000  1  2  5  3  6  9
       0.000000000000  1  2  5  3  6 10
       0.000001093350  1  2  5  3  7  8
      -0.000003489703  1  2  5  3  7  9
       0.000000000000  1  2  5  3  7 10
       0.000000000000  1  2  5  3  8  9
       0.000000000000  1  2  5  3  8 10
       0.000000000000  1  2  5  3  9 10
       0.000000000000  1  2  5  4  5  6
      -0.000011577924  1  2  5  4  5  7
       0.000000000000  1  2  5  4  5  8
       0.000000000000  1  2  5  4  5  9
       0.000000000000  1  2  5  4  5 10
       0.000000000000  1  2  5  4  6  7
       0.000000000000  1  2  5  4  6  8
       0.000000000000  1  2  5  4  6  9
       0.000000000000  1  2  5  4  6 10
       0.000000000000  1  2  5  4  7  8
       0.000000000000  1  2  5  4  7  9
       0.000000000000  1  2  5  4  7 10
       0.000000000000  1  2  5  4  8  9
      -0.000001885185  1  2  5  4  8 10
       0.000005975344  1  2  5  4  9 10
       0.000000000000  1  2  5  5  6  7
       0.000007681613  1  2  5  5  6  8
       0.000002451397  1  2  5  5  6  9
       0.000000000000  1  2  5  5  6 10
       0.000000000000  1  2  5  5  7  8
       0.000000000000  1  2  5  5  7  9
       0.000012396356  1  2  5  5  7 10
       0.000000000000  1  2  5  5  8  9
       0.000000000000  1  2  5  5  8 10
       0.000000000000  1  2  5  5  9 10
       0.000000000000  1  2  5  6  7  8
       0.000000000000  1  2  5  6  7  9
       0.000000000000  1  2  5  6  7 10
       0.000000000000  1  2  5  6  8  9
       0.000000000000  1  2  5  6  8 10
       0.000000000000  1  2  5  6  9 10
       0.000000000000  1  2  5  7  8  9
       0.000000000000  1  2  5  7  8 10
       0.000000000000  1  2  5  7  9 10
       0.000000000000  1  2  5  8  9 10
       0.000000000000  1  2  6  1  2  3
       0.000000000000  1  2  6  1  2  4
       0.000000000000  1  2  6  1  2  5
      -0.162077380593  1  2  6  1  2  6
       0.000000000000  1  2  6  1  2  7
       0.000000000000  1  2  6  1  2  8
       0.000000000000  1  2  6  1  2  9
       0.000000000000  1  2  6  1  2 10
       0.000000000000  1  2  6  1  3  4
       0.000000000000  1  2  6  1  3  5
       0.000000000000  1  2  6  1  3  6
       0.000000000000  1  2  6  1  3  7
       0.002680278092  1  2  6  1  3  8
       0.000852353717  1  2  6  1  3  9
       0.000000000000  1  2  6  1  3 10
       0.000000000000  1  2  6  1  4  5
      -0.000584818014  1  2  6  1  4  6
       0.000000000000  1  2  6  1  4  7
       0.000000000000  1  2  6  1  4  8
       0.000000000000  1  2  6  1  4  9
       0.000000000000  1  2  6  1  4 10
       0.000000000000  1  2  6  1  5  6
       0.000000000000  1  2  6  1  5  7
       0.000000000000  1  2  6  1  5  8
       0.000000000000  1  2  6  1  5  9
       0.000000000000  1  2  6  1  5 10
       0.000000000000  1  2  6  1  6  7
       0.000000000000  1  2  6  1  6  8
       0.000000000000  1  2  6  1  6  9
       0.000943701281  1  2  6  1  6 10
      -0.000200113340  1  2  6  1  7  8
      -0.000063614268  1  2  6  1  7  9
       0.000000000000  1  2  6  1  7 10
       0.000000000000  1  2  6  1  8  9
       0.000000000000  1  2  6  1  8 10
       0.000000000000  1  2  6  1  9 10
       0.000000000000  1  2  6  2  3  4
       0.000000000000  1  2  6  2  3  5
      -0.002684107969  1  2  6  2  3  6
       0.000000000000  1  2  6  2  3  7
       0.000000000000  1  2  6  2  3  8
       0.000000000000  1  2  6  2  3  9
       0.000000000000  1  2  6  2  3 10
       0.000000000000  1  2  6  2  4  5
       0.000000000000  1  2  6  2  4  6
       0.000000000000  1  2  6  2  4  7
       0.000898697892  1  2  6  2  4  8
       0.000285786231  1  2  6  2  4  9
       0.000000000000  1  2  6  2  4 10
       0.000000000000  1  2  6  2  5  6
       0.000000000000  1  2  6  2  5  7
       0.000000000000  1  2  6  2  5  8
       0.000000000000  1  2  6  2  5  9
       0.000000000000  1  2  6  2  5 10
      -0.000528841342  1  2  6  2  6  7
       0.000000000000  1  2  6  2  6  8
       0.000000000000  1  2  6  2  6  9
       0.000000000000  1  2  6  2  6 10
       0.000000000000  1  2  6  2  7  8
       0.000000000000  1  2  6  2  7  9
       0.000000000000  1  2  6  2  7 10
       0.000000000000  1  2  6  2  8  9
      -0.000676742574  1  2  6  2  8 10
      -0.000215211956  1  2  6  2  9 10
       0.000000000000  1  2  6  3  4  5
      -0.000008075881  1  2  6  3  4  6
       0.000000000000  1  2  6  3  4  7
       0.000000000000  1  2  6  3  4  8
       0.000000000000  1  2  6  3  4  9
       0.000000000000  1  2  6  3  4 10
       0.000000000000  1  2  6  3  5  6
       0.000000000000  1  2  6  3  5  7
       0.000000000000  1  2  6  3  5  8
       0.000000000000  1  2  6  3  5  9
       0.000000000000  1  2  6  3  5 10
       0.000000000000  1  2  6  3  6  7
       0.000000000000  1  2  6  3  6  8
       0.000000000000  1  2  6  3  6  9
      -0.000002187595  1  2  6  3  6 10
      -0.000003489703  1  2  6  3  7  8
      -0.000001093350  1  2  6  3  7  9
       0.000000000000  1  2  6  3  7 10
       0.000000000000  1  2  6  3  8  9
       0.000000000000  1  2  6  3  8 10
       0.000000000000  1  2  6  3  9 10
       0.000000000000  1  2  6  4  5  6
       0.000000000000  1  2  6  4  5  7
       0.000000000000  1  2  6  4  5  8
       0.000000000000  1  2  6  4  5  9
       0.000000000000  1  2  6  4  5 10
      -0.000011577924  1  2  6  4  6  7
       0.000000000000  1  2  6  4  6  8
       0.000000000000  1  2  6  4  6  9
       0.000000000000  1  2  6  4  6 10
       0.000000000000  1  2  6  4  7  8
       0.000000000000  1  2  6  4  7  9
       0.000000000000  1  2  6  4  7 10
       0.000000000000  1  2  6  4  8  9
       0.000005975344  1  2  6  4  8 10
       0.000001885185  1  2  6  4  9 10
       0.000000000000  1  2  6  5  6  7
       0.000002451397  1  2  6  5  6  8
      -0.000007681613  1  2  6  5  6  9
       0.000000000000  1  2  6  5  6 10
       0.000000000000  1  2  6  5  7  8
       0.000000000000  1  2  6  5  7  9
       0.000000000000  1  2  6  5  7 10
       0.000000000000  1  2  6  5  8  9
       0.000000000000  1  2  6  5  8 10
       0.000000000000  1  2  6  5  9 10
       0.000000000000  1  2  6  6  7  8
       0.000000000000  1  2  6  6  7  9
       0.000012396356  1  2  6  6  7 10
       0.000000000000  1  2  6  6  8  9
       0.000000000000  1  2  6  6  8 10
       0.000000000000  1  2  6  6  9 10
       0.000000000000  1  2  6  7  8  9
       0.000000000000  1  2  6  7  8 10
       0.000000000000  1  2  6  7  9 10
       0.000000000000  1  2  6  8  9 10
      -0.043309883640  1  2  7  1  2  3
       0.000000000000  1  2  7  1  2  4
       0.000000000000  1  2  7  1  2  5
       0.000000000000  1  2  7  1  2  6
      -0.094253648845  1  2  7  1  2  7
       0.000000000000  1  2  7  1  2  8
       0.000000000000  1  2  7  1  2  9
       0.000000000000  1  2  7  1  2 10
      -0.001208985138  1  2  7  1  3  4
       0.000000000000  1  2  7  1  3  5
       0.000000000000  1  2  7  1  3  6
       0.000000000000  1  2  7  1  3  7
       0.000000000000  1  2  7  1  3  8
       0.000000000000  1  2  7  1  3  9
       0.003462062821  1  2  7  1  3 10
       0.000000000000  1  2  7  1  4  5
       0.000000000000  1  2  7  1  4  6
      -0.000656264076  1  2  7  1  4  7
       0.000000000000  1  2  7  1  4  8
       0.000000000000  1  2  7  1  4  9
       0.000000000000  1  2  7  1  4 10
       0.000000000000  1  2  7  1  5  6
       0.000000000000  1  2  7  1  5  7
       0.000017868111  1  2  7  1  5  8
      -0.000056152309  1  2  7  1  5  9
       0.000000000000  1  2  7  1  5 10
       0.000000000000  1  2  7  1  6  7
      -0.000056152309  1  2  7  1  6  8
      -0.000017868111  1  2  7  1  6  9
       0.000000000000  1  2  7  1  6 10
       0.000000000000  1  2  7  1  7  8
       0.000000000000  1  2  7  1  7  9
       0.000538184725  1  2  7  1  7 10
       0.000000000000  1  2  7  1  8  9
       0.000000000000  1  2  7  1  8 10
       0.000000000000  1  2  7  1  9 10
       0.000000000000  1  2  7  2  3  4
       0.000000000000  1  2  7  2  3  5
       0.000000000000  1  2  7  2  3  6
      -0.003279981898  1  2  7  2  3  7
       0.000000000000  1  2  7  2  3  8
       0.000000000000  1  2  7  2  3  9
       0.000000000000  1  2  7  2  3 10
       0.000000000000  1  2  7  2  4  5
       0.000000000000  1  2  7  2  4  6
       0.000000000000  1  2  7  2  4  7
       0.000000000000  1  2  7  2  4  8
       0.000000000000  1  2  7  2  4  9
       0.001033714076  1  2  7  2  4 10
       0.000000000000  1  2  7  2  5  6
       0.000000000000  1  2  7  2  5  7
       0.000000000000  1  2  7  2  5  8
       0.000000000000  1  2  7  2  5  9
       0.000000000000  1  2  7  2  5 10
       0.000000000000  1  2  7  2  6  7
       0.000000000000  1  2  7  2  6  8
       0.000000000000  1  2  7  2  6  9
       0.000000000000  1  2  7  2  6 10
       0.000000000000  1  2  7  2  7  8
       0.000000000000  1  2  7  2  7  9
       0.000000000000  1  2  7  2  7 10
       0.000000000000  1  2  7  2  8  9
       0.000000000000  1  2  7  2  8 10
       0.000000000000  1  2  7  2  9 10
       0.000000000000  1  2  7  3  4  5
       0.000000000000  1  2  7  3  4  6
      -0.000006639650  1  2  7  3  4  7
       0.000000000000  1  2  7  3  4  8
       0.000000000000  1  2  7  3  4  9
       0.000000000000  1  2  7  3  4 10
       0.000000000000  1  2  7  3  5  6
       0.000000000000  1  2  7  3  5  7
      -0.000001432342  1  2  7  3  5  8
       0.000004552652  1  2  7  3  5  9
       0.000000000000  1  2  7  3  5 10
       0.000000000000  1  2  7  3  6  7
       0.000004552652  1  2  7  3  6  8
       0.000001432342  1  2  7  3  6  9
       0.000000000000  1  2  7  3  6 10
       0.000000000000  1  2  7  3  7  8
       0.000000000000  1  2  7  3  7  9
      -0.000003321294  1  2  7  3  7 10
       0.000000000000  1  2  7  3  8  9
       0.000000000000  1  2  7  3  8 10
       0.000000000000  1  2  7  3  9 10
       0.000000000000  1  2  7  4  5  6
       0.000000000000  1  2  7  4  5  7
       0.000000000000  1  2  7  4  5  8
       0.000000000000  1  2  7  4  5  9
       0.000000000000  1  2  7  4  5 10
       0.000000000000  1  2  7  4  6  7
       0.000000000000  1  2  7  4  6  8
       0.000000000000  1  2  7  4  6  9
       0.000000000000  1  2  7  4  6 10
       0.000000000000  1  2  7  4  7  8
       0.000000000000  1  2  7  4  7  9
       0.000000000000  1  2  7  4  7 10
       0.000000000000  1  2  7  4  8  9
       0.000000000000  1  2  7  4  8 10
       0.000000000000  1  2  7  4  9 10
       0.000000000000  1  2  7  5  6  7
       0.000000000000  1  2  7  5  6  8
       0.000000000000  1  2  7  5  6  9
       0.000000000000  1  2  7  5  6 10
       0.000000867997  1  2  7  5  7  8
      -0.000002727045  1  2  7  5  7  9
       0.000000000000  1  2  7  5  7 10
       0.000000000000  1  2  7  5  8  9
       0.000000000000  1  2  7  5  8 10
       0.000000000000  1  2  7  5  9 10
      -0.000002727045  1  2  7  6  7  8
      -0.000000867997  1  2  7  6  7  9
       0.000000000000  1  2  7  6  7 10
       0.000000000000  1  2  7  6  8  9
       0.000000000000  1  2  7  6  8 10
       0.000000000000  1  2  7  6  9 10
       0.000000000000  1  2  7  7  8  9
       0.000000000000  1  2  7  7  8 10
       0.000000000000  1  2  7  7  9 10
       0.000000000000  1  2  7  8  9 10
       0.000000000000  1  2  8  1  2  3
       0.000000000000  1  2  8  1  2  4
       0.000000000000  1  2  8  1  2  5
       0.000000000000  1  2  8  1  2  6
       0.000000000000  1  2  8  1  2  7
      -0.000960809016  1  2  8  1  2  8
       0.000000000000  1  2  8  1  2  9
       0.000000000000  1  2  8  1  2 10
       0.000000000000  1  2  8  1  3  4
      -0.000664073381  1  2  8  1  3  5
       0.002088115261  1  2  8  1  3  6
       0.000000000000  1  2  8  1  3  7
       0.000000000000  1  2  8  1  3  8
       0.000000000000  1  2  8  1  3  9
       0.000000000000  1  2  8  1  3 10
       0.000000000000  1  2  8  1  4  5
       0.000000000000  1  2  8  1  4  6
       0.000000000000  1  2  8  1  4  7
      -0.000638539091  1  2  8  1  4  8
       0.000000000000  1  2  8  1  4  9
       0.000000000000  1  2  8  1  4 10
       0.000000000000  1  2  8  1  5  6
      -0.000045793943  1  2  8  1  5  7
       0.000000000000  1  2  8  1  5  8
       0.000000000000  1  2  8  1  5  9
       0.000000000000  1  2  8  1  5 10
       0.000143935583  1  2  8  1  6  7
       0.000000000000  1  2  8  1  6  8
       0.000000000000  1  2  8  1  6  9
       0.000000000000  1  2  8  1  6 10
       0.000000000000  1  2  8  1  7  8
       0.000000000000  1  2  8  1  7  9
       0.000000000000  1  2  8  1  7 10
       0.000000000000  1  2  8  1  8  9
       0.000222429631  1  2  8  1  8 10
       0.000000000000  1  2  8  1  9 10
       0.000000000000  1  2  8  2  3  4
       0.000000000000  1  2  8  2  3  5
       0.000000000000  1  2  8  2  3  6
       0.000000000000  1  2  8  2  3  7
      -0.002743503750  1  2  8  2  3  8
       0.000000000000  1  2  8  2  3  9
       0.000000000000  1  2  8  2  3 10
      -0.000202441129  1  2  8  2  4  5
       0.000636516567  1  2  8  2  4  6
       0.000000000000  1  2  8  2  4  7
       0.000000000000  1  2  8  2  4  8
       0.000000000000  1  2  8  2  4  9
       0.000000000000  1  2  8  2  4 10
       0.000000000000  1  2  8  2  5  6
       0.000000000000  1  2  8  2  5  7
       0.000000000000  1  2  8  2  5  8
       0.000000000000  1  2  8  2  5  9
       0.000142295902  1  2  8  2  5 10
       0.000000000000  1  2  8  2  6  7
       0.000000000000  1  2  8  2  6  8
       0.000000000000  1  2  8  2  6  9
      -0.000447440588  1  2  8  2  6 10
      -0.000014715434  1  2  8  2  7  8
       0.000000000000  1  2  8  2  7  9
       0.000000000000  1  2  8  2  7 10
       0.000000000000  1  2  8  2  8  9
       0.000000000000  1  2  8  2  8 10
       0.000000000000  1  2  8  2  9 10
       0.000000000000  1  2  8  3  4  5
       0.000000000000  1  2  8  3  4  6
       0.000000000000  1  2  8  3  4  7
      -0.000005065852  1  2  8  3  4  8
       0.000000000000  1  2  8  3  4  9
       0.000000000000  1  2  8  3  4 10
       0.000000000000  1  2  8  3  5  6
      -0.000001773612  1  2  8  3  5  7
       0.000000000000  1  2  8  3  5  8
       0.000000000000  1  2  8  3  5  9
       0.000000000000  1  2  8  3  5 10
       0.000005639703  1  2  8  3  6  7
       0.000000000000  1  2  8  3  6  8
       0.000000000000  1  2  8  3  6  9
       0.000000000000  1  2  8  3  6 10
       0.000000000000  1  2  8  3  7  8
       0.000000000000  1  2  8  3  7  9
       0.000000000000  1  2  8  3  7 10
       0.000000000000  1  2  8  3  8  9
      -0.000007353425  1  2  8  3  8 10
       0.000000000000  1  2  8  3  9 10
       0.000000000000  1  2  8  4  5  6
       0.000000000000  1  2  8  4  5  7
       0.000000000000  1  2  8  4  5  8
       0.000000000000  1  2  8  4  5  9
      -0.000001129888  1  2  8  4  5 10
       0.000000000000  1  2  8  4  6  7
       0.000000000000  1  2  8  4  6  8
       0.000000000000  1  2  8  4  6  9
       0.000003584593  1  2  8  4  6 10
       0.000000960526  1  2  8  4  7  8
       0.000000000000  1  2  8  4  7  9
       0.000000000000  1  2  8  4  7 10
       0.000000000000  1  2  8  4  8  9
       0.000000000000  1  2  8  4  8 10
       0.000000000000  1  2  8  4  9 10
       0.000000000000  1  2  8  5  6  7
       0.000000000000  1  2  8  5  6  8
       0.000000000000  1  2  8  5  6  9
       0.000000000000  1  2  8  5  6 10
       0.000000000000  1  2  8  5  7  8
       0.000000000000  1  2  8  5  7  9
       0.000000000000  1  2  8  5  7 10
       0.000003203428  1  2  8  5  8  9
       0.000000000000  1  2  8  5  8 10
       0.000000000000  1  2  8  5  9 10
       0.000000000000  1  2  8  6  7  8
       0.000000000000  1  2  8  6  7  9
       0.000000000000  1  2  8  6  7 10
       0.000001010209  1  2  8  6  8  9
       0.000000000000  1  2  8  6  8 10
       0.000000000000  1  2  8  6  9 10
       0.000000000000  1  2  8  7  8  9
       0.000005282111  1  2  8  7  8 10
       0.000000000000  1  2  8  7  9 10
       0.000000000000  1  2  8  8  9 10
       0.000000000000  1  2  9  1  2  3
       0.000000000000  1  2  9  1  2  4
       0.000000000000  1  2  9  1  2  5
       0.000000000000  1  2  9  1  2  6
       0.000000000000  1  2  9  1  2  7
       0.000000000000  1  2  9  1  2  8
      -0.000960809016  1  2  9  1  2  9
       0.000000000000  1  2  9  1  2 10
       0.000000000000  1  2  9  1  3  4
       0.002088115261  1  2  9  1  3  5
       0.000664073381  1  2  9  1  3  6
       0.000000000000  1  2  9  1  3  7
       0.000000000000  1  2  9  1  3  8
       0.000000000000  1  2  9  1  3  9
       0.000000000000  1  2  9  1  3 10
       0.000000000000  1  2  9  1  4  5
       0.000000000000  1  2  9  1  4  6
       0.000000000000  1  2  9  1  4  7
       0.000000000000  1  2  9  1  4  8
      -0.000638539091  1  2  9  1  4  9
       0.000000000000  1  2  9  1  4 10
       0.000000000000  1  2  9  1  5  6
       0.000143935583  1  2  9  1  5  7
       0.000000000000  1  2  9  1  5  8
       0.000000000000  1  2  9  1  5  9
       0.000000000000  1  2  9  1  5 10
       0.000045793943  1  2  9  1  6  7
       0.000000000000  1  2  9  1  6  8
       0.000000000000  1  2  9  1  6  9
       0.000000000000  1  2  9  1  6 10
       0.000000000000  1  2  9  1  7  8
       0.000000000000  1  2  9  1  7  9
       0.000000000000  1  2  9  1  7 10
       0.000000000000  1  2  9  1  8  9
       0.000000000000  1  2  9  1  8 10
       0.000222429631  1  2  9  1  9 10
       0.000000000000  1  2  9  2  3  4
       0.000000000000  1  2  9  2  3  5
       0.000000000000  1  2  9  2  3  6
       0.000000000000  1  2  9  2  3  7
       0.000000000000  1  2  9  2  3  8
      -0.002743503750  1  2  9  2  3  9
       0.000000000000  1  2  9  2  3 10
       0.000636516567  1  2  9  2  4  5
       0.000202441129  1  2  9  2  4  6
       0.000000000000  1  2  9  2  4  7
       0.000000000000  1  2  9  2  4  8
       0.000000000000  1  2  9  2  4  9
       0.000000000000  1  2  9  2  4 10
       0.000000000000  1  2  9  2  5  6
       0.000000000000  1  2  9  2  5  7
       0.000000000000  1  2  9  2  5  8
       0.000000000000  1  2  9  2  5  9
      -0.000447440588  1  2  9  2  5 10
       0.000000000000  1  2  9  2  6  7
       0.000000000000  1  2  9  2  6  8
       0.000000000000  1  2  9  2  6  9
      -0.000142295902  1  2  9  2  6 10
       0.000000000000  1  2  9  2  7  8
      -0.000014715434  1  2  9  2  7  9
       0.000000000000  1  2  9  2  7 10
       0.000000000000  1  2  9  2  8  9
       0.000000000000  1  2  9  2  8 10
       0.000000000000  1  2  9  2  9 10
       0.000000000000  1  2  9  3  4  5
       0.000000000000  1  2  9  3  4  6
       0.000000000000  1  2  9  3  4  7
       0.000000000000  1  2  9  3  4  8
      -0.000005065852  1  2  9  3  4  9
       0.000000000000  1  2  9  3  4 10
       0.000000000000  1  2  9  3  5  6
       0.000005639703  1  2  9  3  5  7
       0.000000000000  1  2  9  3  5  8
       0.000000000000  1  2  9  3  5  9
       0.000000000000  1  2  9  3  5 10
       0.000001773612  1  2  9  3  6  7
       0.000000000000  1  2  9  3  6  8
       0.000000000000  1  2  9  3  6  9
       0.000000000000  1  2  9  3  6 10
       0.000000000000  1  2  9  3  7  8
       0.000000000000  1  2  9  3  7  9
       0.000000000000  1  2  9  3  7 10
       0.000000000000  1  2  9  3  8  9
       0.000000000000  1  2  9  3  8 10
      -0.000007353425  1  2  9  3  9 10
       0.000000000000  1  2  9  4  5  6
       0.000000000000  1  2  9  4  5  7
       0.000000000000  1  2  9  4  5  8
       0.000000000000  1  2  9  4  5  9
       0.000003584593  1  2  9  4  5 10
       0.000000000000  1  2  9  4  6  7
       0.000000000000  1  2  9  4  6  8
       0.000000000000  1  2  9  4  6  9
       0.000001129888  1  2  9  4  6 10
       0.000000000000  1  2  9  4  7  8
       0.000000960526  1  2  9  4  7  9
       0.000000000000  1  2  9  4  7 10
       0.000000000000  1  2  9  4  8  9
       0.000000000000  1  2  9  4  8 10
       0.000000000000  1  2  9  4  9 10
       0.000000000000  1  2  9  5  6  7
       0.000000000000  1  2  9  5  6  8
       0.000000000000  1  2  9  5  6  9
       0.000000000000  1  2  9  5  6 10
       0.000000000000  1  2  9  5  7  8
       0.000000000000  1  2  9  5  7  9
       0.000000000000  1  2  9  5  7 10
       0.000001010209  1  2  9  5  8  9
       0.000000000000  1  2  9  5  8 10
       0.000000000000  1  2  9  5  9 10
       0.000000000000  1  2  9  6  7  8
       0.000000000000  1  2  9  6  7  9
       0.000000000000  1  2  9  6  7 10
      -0.000003203428  1  2  9  6  8  9
       0.000000000000  1  2  9  6  8 10
       0.000000000000  1  2  9  6  9 10
       0.000000000000  1  2  9  7  8  9
       0.000000000000  1  2  9  7  8 10
       0.000005282111  1  2  9  7  9 10
       0.000000000000  1  2  9  8  9 10
       0.000000000000  1  2 10  1  2  3
      -0.049679331421  1  2 10  1  2  4
       0.000000000000  1  2 10  1  2  5
       0.000000000000  1  2 10  1  2  6
       0.000000000000  1  2 10  1  2  7
       0.000000000000  1  2 10  1  2  8
       0.000000000000  1  2 10  1  2  9
      -0.023621366498  1  2 10  1  2 10
       0.000000000000  1  2 10  1  3  4
       0.000000000000  1  2 10  1  3  5
       0.000000000000  1  2 10  1  3  6
       0.001784290516  1  2 10  1  3  7
       0.000000000000  1  2 10  1  3  8
       0.000000000000  1  2 10  1  3  9
       0.000000000000  1  2 10  1  3 10
       0.000000000000  1  2 10  1  4  5
       0.000000000000  1  2 10  1  4  6
       0.000000000000  1  2 10  1  4  7
       0.000000000000  1  2 10  1  4  8
       0.000000000000  1  2 10  1  4  9
      -0.000281596124  1  2 10  1  4 10
       0.000000000000  1  2 10  1  5  6
       0.000000000000  1  2 10  1  5  7
       0.000000000000  1  2 10  1  5  8
       0.000000000000  1  2 10  1  5  9
       0.000000000000  1  2 10  1  5 10
       0.000000000000  1  2 10  1  6  7
       0.000000000000  1  2 10  1  6  8
       0.000000000000  1  2 10  1  6  9
       0.000000000000  1  2 10  1  6 10
       0.000000000000  1  2 10  1  7  8
       0.000000000000  1  2 10  1  7  9
       0.000000000000  1  2 10  1  7 10
       0.000000000000  1  2 10  1  8  9
       0.000000000000  1  2 10  1  8 10
       0.000000000000  1  2 10  1  9 10
       0.002186528874  1  2 10  2  3  4
       0.000000000000  1  2 10  2  3  5
       0.000000000000  1  2 10  2  3  6
       0.000000000000  1  2 10  2  3  7
       0.000000000000  1  2 10  2  3  8
       0.000000000000  1  2 10  2  3  9
      -0.001131985501  1  2 10  2  3 10
       0.000000000000  1  2 10  2  4  5
       0.000000000000  1  2 10  2  4  6
       0.000421368209  1  2 10  2  4  7
       0.000000000000  1  2 10  2  4  8
       0.000000000000  1  2 10  2  4  9
       0.000000000000  1  2 10  2  4 10
       0.000000000000  1  2 10  2  5  6
       0.000000000000  1  2 10  2  5  7
      -0.000072915766  1  2 10  2  5  8
       0.000229309912  1  2 10  2  5  9
       0.000000000000  1  2 10  2  5 10
       0.000000000000  1  2 10  2  6  7
       0.000229309912  1  2 10  2  6  8
       0.000072915766  1  2 10  2  6  9
       0.000000000000  1  2 10  2  6 10
       0.000000000000  1  2 10  2  7  8
       0.000000000000  1  2 10  2  7  9
      -0.000224585267  1  2 10  2  7 10
       0.000000000000  1  2 10  2  8  9
       0.000000000000  1  2 10  2  8 10
       0.000000000000  1  2 10  2  9 10
       0.000000000000  1  2 10  3  4  5
       0.000000000000  1  2 10  3  4  6
       0.000000000000  1  2 10  3  4  7
       0.000000000000  1  2 10  3  4  8
       0.000000000000  1  2 10  3  4  9
       0.000001388621  1  2 10  3  4 10
       0.000000000000  1  2 10  3  5  6
       0.000000000000  1  2 10  3  5  7
       0.000000000000  1  2 10  3  5  8
       0.000000000000  1  2 10  3  5  9
       0.000000000000  1  2 10  3  5 10
       0.000000000000  1  2 10  3  6  7
       0.000000000000  1  2 10  3  6  8
       0.000000000000  1  2 10  3  6  9
       0.000000000000  1  2 10  3  6 10
       0.000000000000  1  2 10  3  7  8
       0.000000000000  1  2 10  3  7  9
       0.000000000000  1  2 10  3  7 10
       0.000000000000  1  2 10  3  8  9
       0.000000000000  1  2 10  3  8 10
       0.000000000000  1  2 10  3  9 10
       0.000000000000  1  2 10  4  5  6
       0.000000000000  1  2 10  4  5  7
      -0.000001931860  1  2 10  4  5  8
       0.000006095394  1  2 10  4  5  9
       0.000000000000  1  2 10  4  5 10
       0.000000000000  1  2 10  4  6  7
       0.000006095394  1  2 10  4  6  8
       0.000001931860  1  2 10  4  6  9
       0.000000000000  1  2 10  4  6 10
       0.000000000000  1  2 10  4  7  8
       0.000000000000  1  2 10  4  7  9
       0.000016155262  1  2 10  4  7 10
       0.000000000000  1  2 10  4  8  9
       0.000000000000  1  2 10  4  8 10
       0.000000000000  1  2 10  4  9 10
       0.000000000000  1  2 10  5  6  7
       0.000000000000  1  2 10  5  6  8
       0.000000000000  1  2 10  5  6  9
       0.000000000000  1  2 10  5  6 10
       0.000000000000  1  2 10  5  7  8
       0.000000000000  1  2 10  5  7  9
       0.000000000000  1  2 10  5  7 10
       0.000000000000  1  2 10  5  8  9
      -0.000000657337  1  2 10  5  8 10
       0.000002037887  1  2 10  5  9 10
       0.000000000000  1  2 10  6  7  8
       0.000000000000  1  2 10  6  7  9
       0.000000000000  1  2 10  6  7 10
       0.000000000000  1  2 10  6  8  9
       0.000002037887  1  2 10  6  8 10
       0.000000657337  1  2 10  6  9 10
       0.000000000000  1  2 10  7  8  9
       0.000000000000  1  2 10  7  8 10
       0.000000000000  1  2 10  7  9 10
       0.000000000000  1  2 10  8  9 10
      -0.000775453744  1  3  4  1  2  3
       0.000000000000  1  3  4  1  2  4
       0.000000000000  1  3  4  1  2  5
       0.000000000000  1  3  4  1  2  6
      -0.001208985138  1  3  4  1  2  7
       0.000000000000  1  3  4  1  2  8
       0.000000000000  1  3  4  1  2  9
       0.000000000000  1  3  4  1  2 10
      -0.001915761332  1  3  4  1  3  4
       0.000000000000  1  3  4  1  3  5
       0.000000000000  1  3  4  1  3  6
       0.000000000000  1  3  4  1  3  7
       0.000000000000  1  3  4  1  3  8
       0.000000000000  1  3  4  1  3  9
      -0.000836528152  1  3  4  1  3 10
       0.000000000000  1  3  4  1  4  5
       0.000000000000  1  3  4  1  4  6
      -0.000045632643  1  3  4  1  4  7
       0.000000000000  1  3  4  1  4  8
       0.000000000000  1  3  4  1  4  9
       0.000000000000  1  3  4  1  4 10
       0.000000000000  1  3  4  1  5  6
       0.000000000000  1  3  4  1  5  7
      -0.000006706722  1  3  4  1  5  8
       0.000021044612  1  3  4  1  5  9
       0.000000000000  1  3  4  1  5 10
       0.000000000000  1  3  4  1  6  7
       0.000021044612  1  3  4  1  6  8
       0.000006706722  1  3  4  1  6  9
       0.000000000000  1  3  4  1  6 10
       0.000000000000  1  3  4  1  7  8
       0.000000000000  1  3  4  1  7  9
       0.000053817252  1  3  4  1  7 10
       0.000000000000  1  3  4  1  8  9
       0.000000000000  1  3  4  1  8 10
       0.000000000000  1  3  4  1  9 10
       0.000000000000  1  3  4  2  3  4
       0.000000000000  1  3  4  2  3  5
       0.000000000000  1  3  4  2  3  6
      -0.000775968039  1  3  4  2  3  7
       0.000000000000  1  3  4  2  3  8
       0.000000000000  1  3  4  2  3  9
       0.000000000000  1  3  4  2  3 10
       0.000000000000  1  3  4  2  4  5
       0.000000000000  1  3  4  2  4  6
       0.000000000000  1  3  4  2  4  7
       0.000000000000  1  3  4  2  4  8
       0.000000000000  1  3  4  2  4  9
       0.000188920137  1  3  4  2  4 10
       0.000000000000  1  3  4  2  5  6
       0.000000000000  1  3  4  2  5  7
       0.000000000000  1  3  4  2  5  8
       0.000000000000  1  3  4  2  5  9
       0.000000000000  1  3  4  2  5 10
       0.000000000000  1  3  4  2  6  7
       0.000000000000  1  3  4  2  6  8
       0.000000000000  1  3  4  2  6  9
       0.000000000000  1  3  4  2  6 10
       0.000000000000  1  3  4  2  7  8
       0.000000000000  1  3  4  2  7  9
       0.000000000000  1  3  4  2  7 10
       0.000000000000  1  3  4  2  8  9
       0.000000000000  1  3  4  2  8 10
       0.000000000000  1  3  4  2  9 10
       0.000000000000  1  3  4  3  4  5
       0.000000000000  1  3  4  3  4  6
      -0.000003647432  1  3  4  3  4  7
       0.000000000000  1  3  4  3  4  8
       0.000000000000  1  3  4  3  4  9
       0.000000000000  1  3  4  3  4 10
       0.000000000000  1  3  4  3  5  6
       0.000000000000  1  3  4  3  5  7
       0.000000757347  1  3  4  3  5  8
      -0.000002377333  1  3  4  3  5  9
       0.000000000000  1  3  4  3  5 10
       0.000000000000  1  3  4  3  6  7
      -0.000002377333  1  3  4  3  6  8
      -0.000000757347  1  3  4  3  6  9
       0.000000000000  1  3  4  3  6 10
       0.000000000000  1  3  4  3  7  8
       0.000000000000  1  3  4  3  7  9
      -0.000001135755  1  3  4  3  7 10
       0.000000000000  1  3  4  3  8  9
       0.000000000000  1  3  4  3  8 10
       0.000000000000  1  3  4  3  9 10
       0.000000000000  1  3  4  4  5  6
       0.000000000000  1  3  4  4  5  7
       0.000000000000  1  3  4  4  5  8
       0.000000000000  1  3  4  4  5  9
       0.000000000000  1  3  4  4  5 10
       0.000000000000  1  3  4  4  6  7
       0.000000000000  1  3  4  4  6  8
       0.000000000000  1  3  4  4  6  9
       0.000000000000  1  3  4  4  6 10
       0.000000000000  1  3  4  4  7  8
       0.000000000000  1  3  4  4  7  9
       0.000000000000  1  3  4  4  7 10
       0.000000000000  1  3  4  4  8  9
       0.000000000000  1  3  4  4  8 10
       0.000000000000  1  3  4  4  9 10
       0.000000000000  1  3  4  5  6  7
       0.000000000000  1  3  4  5  6  8
       0.000000000000  1  3  4  5  6  9
       0.000000000000  1  3  4  5  6 10
      -0.000000078381  1  3  4  5  7  8
       0.000000250292  1  3  4  5  7  9
       0.000000000000  1  3  4  5  7 10
       0.000000000000  1  3  4  5  8  9
       0.000000000000  1  3  4  5  8 10
       0.000000000000  1  3  4  5  9 10
       0.000000250292  1  3  4  6  7  8
       0.000000078381  1  3  4  6  7  9
       0.000000000000  1  3  4  6  7 10
       0.000000000000  1  3  4  6  8  9
       0.000000000000  1  3  4  6  8 10
       0.000000000000  1  3  4  6  9 10
       0.000000000000  1  3  4  7  8  9
       0.000000000000  1  3  4  7  8 10
       0.000000000000  1  3  4  7  9 10
       0.000000000000  1  3  4  8  9 10
       0.000000000000  1  3  5  1  2  3
       0.000000000000  1  3  5  1  2  4
       0.000000000000  1  3  5  1  2  5
       0.000000000000  1  3  5  1  2  6
       0.000000000000  1  3  5  1  2  7
      -0.000664073381  1  3  5  1  2  8
       0.002088115261  1  3  5  1  2  9
       0.000000000000  1  3  5  1  2 10
       0.000000000000  1  3  5  1  3  4
      -0.000327370637  1  3  5  1  3  5
       0.000000000000  1  3  5  1  3  6
       0.000000000000  1  3  5  1  3  7
       0.000000000000  1  3  5  1  3  8
       0.000000000000  1  3  5  1  3  9
       0.000000000000  1  3  5  1  3 10
       0.000000000000  1  3  5  1  4  5
       0.000000000000  1  3  5  1  4  6
       0.000000000000  1  3  5  1  4  7
       0.000006156787  1  3  5  1  4  8
      -0.000019401104  1  3  5  1  4  9
       0.000000000000  1  3  5  1  4 10
       0.000000000000  1  3  5  1  5  6
      -0.000004187004  1  3  5  1  5  7
       0.000000000000  1  3  5  1  5  8
       0.000000000000  1  3  5  1  5  9
       0.000000000000  1  3  5  1  5 10
       0.000000000000  1  3  5  1  6  7
       0.000000000000  1  3  5  1  6  8
       0.000000000000  1  3  5  1  6  9
       0.000000000000  1  3  5  1  6 10
       0.000000000000  1  3  5  1  7  8
       0.000000000000  1  3  5  1  7  9
       0.000000000000  1  3  5  1  7 10
       0.000000000000  1  3  5  1  8  9
      -0.000004795481  1  3  5  1  8 10
       0.000015055321  1  3  5  1  9 10
       0.000000000000  1  3  5  2  3  4
       0.000000000000  1  3  5  2  3  5
       0.000000000000  1  3  5  2  3  6
       0.000000000000  1  3  5  2  3  7
      -0.000282075436  1  3  5  2  3  8
       0.000886926846  1  3  5  2  3  9
       0.000000000000  1  3  5  2  3 10
      -0.000360973920  1  3  5  2  4  5
       0.000000000000  1  3  5  2  4  6
       0.000000000000  1  3  5  2  4  7
       0.000000000000  1  3  5  2  4  8
       0.000000000000  1  3  5  2  4  9
       0.000000000000  1  3  5  2  4 10
       0.000000000000  1  3  5  2  5  6
       0.000000000000  1  3  5  2  5  7
       0.000000000000  1  3  5  2  5  8
       0.000000000000  1  3  5  2  5  9
       0.000323574397  1  3  5  2  5 10
       0.000000000000  1  3  5  2  6  7
       0.000000000000  1  3  5  2  6  8
       0.000000000000  1  3  5  2  6  9
       0.000000000000  1  3  5  2  6 10
       0.000015073268  1  3  5  2  7  8
      -0.000047325605  1  3  5  2  7  9
       0.000000000000  1  3  5  2  7 10
       0.000000000000  1  3  5  2  8  9
       0.000000000000  1  3  5  2  8 10
       0.000000000000  1  3  5  2  9 10
       0.000000000000  1  3  5  3  4  5
       0.000000000000  1  3  5  3  4  6
       0.000000000000  1  3  5  3  4  7
      -0.000000647803  1  3  5  3  4  8
       0.000002034352  1  3  5  3  4  9
       0.000000000000  1  3  5  3  4 10
       0.000000000000  1  3  5  3  5  6
       0.000000762195  1  3  5  3  5  7
       0.000000000000  1  3  5  3  5  8
       0.000000000000  1  3  5  3  5  9
       0.000000000000  1  3  5  3  5 10
       0.000000000000  1  3  5  3  6  7
       0.000000000000  1  3  5  3  6  8
       0.000000000000  1  3  5  3  6  9
       0.000000000000  1  3  5  3  6 10
       0.000000000000  1  3  5  3  7  8
       0.000000000000  1  3  5  3  7  9
       0.000000000000  1  3  5  3  7 10
       0.000000000000  1  3  5  3  8  9
       0.000000529109  1  3  5  3  8 10
      -0.000001631601  1  3  5  3  9 10
       0.000000000000  1  3  5  4  5  6
       0.000000000000  1  3  5  4  5  7
       0.000000000000  1  3  5  4  5  8
       0.000000000000  1  3  5  4  5  9
      -0.000001361623  1  3  5  4  5 10
       0.000000000000  1  3  5  4  6  7
       0.000000000000  1  3  5  4  6  8
       0.000000000000  1  3  5  4  6  9
       0.000000000000  1  3  5  4  6 10
      -0.000000076591  1  3  5  4  7  8
       0.000000243595  1  3  5  4  7  9
       0.000000000000  1  3  5  4  7 10
       0.000000000000  1  3  5  4  8  9
       0.000000000000  1  3  5  4  8 10
       0.000000000000  1  3  5  4  9 10
       0.000000000000  1  3  5  5  6  7
       0.000000000000  1  3  5  5  6  8
       0.000000000000  1  3  5  5  6  9
       0.000000000000  1  3  5  5  6 10
       0.000000000000  1  3  5  5  7  8
       0.000000000000  1  3  5  5  7  9
       0.000000000000  1  3  5  5  7 10
       0.000000000000  1  3  5  5  8  9
       0.000000000000  1  3  5  5  8 10
       0.000000000000  1  3  5  5  9 10
       0.000000000000  1  3  5  6  7  8
       0.000000000000  1  3  5  6  7  9
       0.000000000000  1  3  5  6  7 10
       0.000000453969  1  3  5  6  8  9
       0.000000000000  1  3  5  6  8 10
       0.000000000000  1  3  5  6  9 10
       0.000000000000  1  3  5  7  8  9
       0.000000338549  1  3  5  7  8 10
      -0.000001060222  1  3  5  7  9 10
       0.000000000000  1  3  5  8  9 10
       0.000000000000  1  3  6  1  2  3
       0.000000000000  1  3  6  1  2  4
       0.000000000000  1  3  6  1  2  5
       0.000000000000  1  3  6  1  2  6
       0.000000000000  1  3  6  1  2  7
       0.002088115261  1  3  6  1  2  8
       0.000664073381  1  3  6  1  2  9
       0.000000000000  1  3  6  1  2 10
       0.000000000000  1  3  6  1  3  4
       0.000000000000  1  3  6  1  3  5
      -0.000327370637  1  3  6  1  3  6
       0.000000000000  1  3  6  1  3  7
       0.000000000000  1  3  6  1  3  8
       0.000000000000  1  3  6  1  3  9
       0.000000000000  1  3  6  1  3 10
       0.000000000000  1  3  6  1  4  5
       0.000000000000  1  3  6  1  4  6
       0.000000000000  1  3  6  1  4  7
      -0.000019401104  1  3  6  1  4  8
      -0.000006156787  1  3  6  1  4  9
       0.000000000000  1  3  6  1  4 10
       0.000000000000  1  3  6  1  5  6
       0.000000000000  1  3  6  1  5  7
       0.000000000000  1  3  6  1  5  8
       0.000000000000  1  3  6  1  5  9
       0.000000000000  1  3  6  1  5 10
      -0.000004187004  1  3  6  1  6  7
       0.000000000000  1  3  6  1  6  8
       0.000000000000  1  3  6  1  6  9
       0.000000000000  1  3  6  1  6 10
       0.000000000000  1  3  6  1  7  8
       0.000000000000  1  3  6  1  7  9
       0.000000000000  1  3  6  1  7 10
       0.000000000000  1  3  6  1  8  9
       0.000015055321  1  3  6  1  8 10
       0.000004795481  1  3  6  1  9 10
       0.000000000000  1  3  6  2  3  4
       0.000000000000  1  3  6  2  3  5
       0.000000000000  1  3  6  2  3  6
       0.000000000000  1  3  6  2  3  7
       0.000886926846  1  3  6  2  3  8
       0.000282075436  1  3  6  2  3  9
       0.000000000000  1  3  6  2  3 10
       0.000000000000  1  3  6  2  4  5
      -0.000360973920  1  3  6  2  4  6
       0.000000000000  1  3  6  2  4  7
       0.000000000000  1  3  6  2  4  8
       0.000000000000  1  3  6  2  4  9
       0.000000000000  1  3  6  2  4 10
       0.000000000000  1  3  6  2  5  6
       0.000000000000  1  3  6  2  5  7
       0.000000000000  1  3  6  2  5  8
       0.000000000000  1  3  6  2  5  9
       0.000000000000  1  3  6  2  5 10
       0.000000000000  1  3  6  2  6  7
       0.000000000000  1  3  6  2  6  8
       0.000000000000  1  3  6  2  6  9
       0.000323574397  1  3  6  2  6 10
      -0.000047325605  1  3  6  2  7  8
      -0.000015073268  1  3  6  2  7  9
       0.000000000000  1  3  6  2  7 10
       0.000000000000  1  3  6  2  8  9
       0.000000000000  1  3  6  2  8 10
       0.000000000000  1  3  6  2  9 10
       0.000000000000  1  3  6  3  4  5
       0.000000000000  1  3  6  3  4  6
       0.000000000000  1  3  6  3  4  7
       0.000002034352  1  3  6  3  4  8
       0.000000647803  1  3  6  3  4  9
       0.000000000000  1  3  6  3  4 10
       0.000000000000  1  3  6  3  5  6
       0.000000000000  1  3  6  3  5  7
       0.000000000000  1  3  6  3  5  8
       0.000000000000  1  3  6  3  5  9
       0.000000000000  1  3  6  3  5 10
       0.000000762195  1  3  6  3  6  7
       0.000000000000  1  3  6  3  6  8
       0.000000000000  1  3  6  3  6  9
       0.000000000000  1  3  6  3  6 10
       0.000000000000  1  3  6  3  7  8
       0.000000000000  1  3  6  3  7  9
       0.000000000000  1  3  6  3  7 10
       0.000000000000  1  3  6  3  8  9
      -0.000001631601  1  3  6  3  8 10
      -0.000000529109  1  3  6  3  9 10
       0.000000000000  1  3  6  4  5  6
       0.000000000000  1  3  6  4  5  7
       0.000000000000  1  3  6  4  5  8
       0.000000000000  1  3  6  4  5  9
       0.000000000000  1  3  6  4  5 10
       0.000000000000  1  3  6  4  6  7
       0.000000000000  1  3  6  4  6  8
       0.000000000000  1  3  6  4  6  9
      -0.000001361623  1  3  6  4  6 10
       0.000000243595  1  3  6  4  7  8
       0.000000076591  1  3  6  4  7  9
       0.000000000000  1  3  6  4  7 10
       0.000000000000  1  3  6  4  8  9
       0.000000000000  1  3  6  4  8 10
       0.000000000000  1  3  6  4  9 10
       0.000000000000  1  3  6  5  6  7
       0.000000000000  1  3  6  5  6  8
       0.000000000000  1  3  6  5  6  9
       0.000000000000  1  3  6  5  6 10
       0.000000000000  1  3  6  5  7  8
       0.000000000000  1  3  6  5  7  9
       0.000000000000  1  3  6  5  7 10
      -0.000000453969  1  3  6  5  8  9
       0.000000000000  1  3  6  5  8 10
       0.000000000000  1  3  6  5  9 10
       0.000000000000  1  3  6  6  7  8
       0.000000000000  1  3  6  6  7  9
       0.000000000000  1  3  6  6  7 10
       0.000000000000  1  3  6  6  8  9
       0.000000000000  1  3  6  6  8 10
       0.000000000000  1  3  6  6  9 10
       0.000000000000  1  3  6  7  8  9
      -0.000001060222  1  3  6  7  8 10
      -0.000000338549  1  3  6  7  9 10
       0.000000000000  1  3  6  8  9 10
       0.000000000000  1  3  7  1  2  3
      -0.001033449838  1  3  7  1  2  4
       0.000000000000  1  3  7  1  2  5
       0.000000000000  1  3  7  1  2  6
       0.000000000000  1  3  7  1  2  7
       0.000000000000  1  3  7  1  2  8
       0.000000000000  1  3  7  1  2  9
       0.001784290516  1  3  7  1  2 10
       0.000000000000  1  3  7  1  3  4
       0.000000000000  1  3  7  1  3  5
       0.000000000000  1  3  7  1  3  6
      -0.000707965979  1  3  7  1  3  7
       0.000000000000  1  3  7  1  3  8
       0.000000000000  1  3  7  1  3  9
       0.000000000000  1  3  7  1  3 10
       0.000000000000  1  3  7  1  4  5
       0.000000000000  1  3  7  1  4  6
       0.000000000000  1  3  7  1  4  7
       0.000000000000  1  3  7  1  4  8
       0.000000000000  1  3  7  1  4  9
      -0.000021758240  1  3  7  1  4 10
       0.000000000000  1  3  7  1  5  6
       0.000000000000  1  3  7  1  5  7
       0.000000000000  1  3  7  1  5  8
       0.000000000000  1  3  7  1  5  9
       0.000000000000  1  3  7  1  5 10
       0.000000000000  1  3  7  1  6  7
       0.000000000000  1  3  7  1  6  8
       0.000000000000  1  3  7  1  6  9
       0.000000000000  1  3  7  1  6 10
       0.000000000000  1  3  7  1  7  8
       0.000000000000  1  3  7  1  7  9
       0.000000000000  1  3  7  1  7 10
       0.000000000000  1  3  7  1  8  9
       0.000000000000  1  3  7  1  8 10
       0.000000000000  1  3  7  1  9 10
      -0.000713058092  1  3  7  2  3  4
       0.000000000000  1  3  7  2  3  5
       0.000000000000  1  3  7  2  3  6
       0.000000000000  1  3  7  2  3  7
       0.000000000000  1  3  7  2  3  8
       0.000000000000  1  3  7  2  3  9
       0.000925404940  1  3  7  2  3 10
       0.000000000000  1  3  7  2  4  5
       0.000000000000  1  3  7  2  4  6
      -0.000221855084  1  3  7  2  4  7
       0.000000000000  1  3  7  2  4  8
       0.000000000000  1  3  7  2  4  9
       0.000000000000  1  3  7  2  4 10
       0.000000000000  1  3  7  2  5  6
       0.000000000000  1  3  7  2  5  7
       0.000000226821  1  3  7  2  5  8
      -0.000000668479  1  3  7  2  5  9
       0.000000000000  1  3  7  2  5 10
       0.000000000000  1  3  7  2  6  7
      -0.000000668479  1  3  7  2  6  8
      -0.000000226821  1  3  7  2  6  9
       0.000000000000  1  3  7  2  6 10
       0.000000000000  1  3  7  2  7  8
       0.000000000000  1  3  7  2  7  9
       0.000129126410  1  3  7  2  7 10
       0.000000000000  1  3  7  2  8  9
       0.000000000000  1  3  7  2  8 10
       0.000000000000  1  3  7  2  9 10
       0.000000000000  1  3  7  3  4  5
       0.000000000000  1  3  7  3  4  6
       0.000000000000  1  3  7  3  4  7
       0.000000000000  1  3  7  3  4  8
       0.000000000000  1  3  7  3  4  9
       0.000002599208  1  3  7  3  4 10
       0.000000000000  1  3  7  3  5  6
       0.000000000000  1  3  7  3  5  7
       0.000000000000  1  3  7  3  5  8
       0.000000000000  1  3  7  3  5  9
       0.000000000000  1  3  7  3  5 10
       0.000000000000  1  3  7  3  6  7
       0.000000000000  1  3  7  3  6  8
       0.000000000000  1  3  7  3  6  9
       0.000000000000  1  3  7  3  6 10
       0.000000000000  1  3  7  3  7  8
       0.000000000000  1  3  7  3  7  9
       0.000000000000  1  3  7  3  7 10
       0.000000000000  1  3  7  3  8  9
       0.000000000000  1  3  7  3  8 10
       0.000000000000  1  3  7  3  9 10
       0.000000000000  1  3  7  4  5  6
       0.000000000000  1  3  7  4  5  7
       0.000000116808  1  3  7  4  5  8
      -0.000000370178  1  3  7  4  5  9
       0.000000000000  1  3  7  4  5 10
       0.000000000000  1  3  7  4  6  7
      -0.000000370178  1  3  7  4  6  8
      -0.000000116808  1  3  7  4  6  9
       0.000000000000  1  3  7  4  6 10
       0.000000000000  1  3  7  4  7  8
       0.000000000000  1  3  7  4  7  9
      -0.000001953753  1  3  7  4  7 10
       0.000000000000  1  3  7  4  8  9
       0.000000000000  1  3  7  4  8 10
       0.000000000000  1  3  7  4  9 10
       0.000000000000  1  3  7  5  6  7
       0.000000000000  1  3  7  5  6  8
       0.000000000000  1  3  7  5  6  9
       0.000000000000  1  3  7  5  6 10
       0.000000000000  1  3  7  5  7  8
       0.000000000000  1  3  7  5  7  9
       0.000000000000  1  3  7  5  7 10
       0.000000000000  1  3  7  5  8  9
      -0.000000140697  1  3  7  5  8 10
       0.000000445918  1  3  7  5  9 10
       0.000000000000  1  3  7  6  7  8
       0.000000000000  1  3  7  6  7  9
       0.000000000000  1  3  7  6  7 10
       0.000000000000  1  3  7  6  8  9
       0.000000445918  1  3  7  6  8 10
       0.000000140697  1  3  7  6  9 10
       0.000000000000  1  3  7  7  8  9
       0.000000000000  1  3  7  7  8 10
       0.000000000000  1  3  7  7  9 10
       0.000000000000  1  3  7  8  9 10
       0.000000000000  1  3  8  1  2  3
       0.000000000000  1  3  8  1  2  4
      -0.000852353717  1  3  8  1  2  5
       0.002680278092  1  3  8  1  2  6
       0.000000000000  1  3  8  1  2  7
       0.000000000000  1  3  8  1  2  8
       0.000000000000  1  3  8  1  2  9
       0.000000000000  1  3  8  1  2 10
       0.000000000000  1  3  8  1  3  4
       0.000000000000  1  3  8  1  3  5
       0.000000000000  1  3  8  1  3  6
       0.000000000000  1  3  8  1  3  7
      -0.001174786650  1  3  8  1  3  8
       0.000000000000  1  3  8  1  3  9
       0.000000000000  1  3  8  1  3 10
       0.000012871456  1  3  8  1  4  5
      -0.000040466782  1  3  8  1  4  6
       0.000000000000  1  3  8  1  4  7
       0.000000000000  1  3  8  1  4  8
       0.000000000000  1  3  8  1  4  9
       0.000000000000  1  3  8  1  4 10
       0.000000000000  1  3  8  1  5  6
       0.000000000000  1  3  8  1  5  7
       0.000000000000  1  3  8  1  5  8
       0.000000000000  1  3  8  1  5  9
      -0.000010475258  1  3  8  1  5 10
       0.000000000000  1  3  8  1  6  7
       0.000000000000  1  3  8  1  6  8
       0.000000000000  1  3  8  1  6  9
       0.000032904352  1  3  8  1  6 10
       0.000056320615  1  3  8  1  7  8
       0.000000000000  1  3  8  1  7  9
       0.000000000000  1  3  8  1  7 10
       0.000000000000  1  3  8  1  8  9
       0.000000000000  1  3  8  1  8 10
       0.000000000000  1  3  8  1  9 10
       0.000000000000  1  3  8  2  3  4
      -0.000300061015  1  3  8  2  3  5
       0.000943468340  1  3  8  2  3  6
       0.000000000000  1  3  8  2  3  7
       0.000000000000  1  3  8  2  3  8
       0.000000000000  1  3  8  2  3  9
       0.000000000000  1  3  8  2  3 10
       0.000000000000  1  3  8  2  4  5
       0.000000000000  1  3  8  2  4  6
       0.000000000000  1  3  8  2  4  7
       0.000044179627  1  3  8  2  4  8
       0.000000000000  1  3  8  2  4  9
       0.000000000000  1  3  8  2  4 10
       0.000000000000  1  3  8  2  5  6
      -0.000015600226  1  3  8  2  5  7
       0.000000000000  1  3  8  2  5  8
       0.000000000000  1  3  8  2  5  9
       0.000000000000  1  3  8  2  5 10
       0.000049019002  1  3  8  2  6  7
       0.000000000000  1  3  8  2  6  8
       0.000000000000  1  3  8  2  6  9
       0.000000000000  1  3  8  2  6 10
       0.000000000000  1  3  8  2  7  8
       0.000000000000  1  3  8  2  7  9
       0.000000000000  1  3  8  2  7 10
       0.000000000000  1  3  8  2  8  9
      -0.000041897032  1  3  8  2  8 10
       0.000000000000  1  3  8  2  9 10
      -0.000001410449  1  3  8  3  4  5
       0.000004424341  1  3  8  3  4  6
       0.000000000000  1  3  8  3  4  7
       0.000000000000  1  3  8  3  4  8
       0.000000000000  1  3  8  3  4  9
       0.000000000000  1  3  8  3  4 10
       0.000000000000  1  3  8  3  5  6
       0.000000000000  1  3  8  3  5  7
       0.000000000000  1  3  8  3  5  8
       0.000000000000  1  3  8  3  5  9
       0.000001130407  1  3  8  3  5 10
       0.000000000000  1  3  8  3  6  7
       0.000000000000  1  3  8  3  6  8
       0.000000000000  1  3  8  3  6  9
      -0.000003506605  1  3  8  3  6 10
       0.000001651258  1  3  8  3  7  8
       0.000000000000  1  3  8  3  7  9
       0.000000000000  1  3  8  3  7 10
       0.000000000000  1  3  8  3  8  9
       0.000000000000  1  3  8  3  8 10
       0.000000000000  1  3  8  3  9 10
       0.000000000000  1  3  8  4  5  6
       0.000000114901  1  3  8  4  5  7
       0.000000000000  1  3  8  4  5  8
       0.000000000000  1  3  8  4  5  9
       0.000000000000  1  3  8  4  5 10
      -0.000000367822  1  3  8  4  6  7
       0.000000000000  1  3  8  4  6  8
       0.000000000000  1  3  8  4  6  9
       0.000000000000  1  3  8  4  6 10
       0.000000000000  1  3  8  4  7  8
       0.000000000000  1  3  8  4  7  9
       0.000000000000  1  3  8  4  7 10
       0.000000000000  1  3  8  4  8  9
       0.000000604383  1  3  8  4  8 10
       0.000000000000  1  3  8  4  9 10
       0.000000000000  1  3  8  5  6  7
       0.000000000000  1  3  8  5  6  8
      -0.000000457868  1  3  8  5  6  9
       0.000000000000  1  3  8  5  6 10
       0.000000000000  1  3  8  5  7  8
       0.000000000000  1  3  8  5  7  9
      -0.000000308333  1  3  8  5  7 10
       0.000000000000  1  3  8  5  8  9
       0.000000000000  1  3  8  5  8 10
       0.000000000000  1  3  8  5  9 10
       0.000000000000  1  3  8  6  7  8
       0.000000000000  1  3  8  6  7  9
       0.000000953920  1  3  8  6  7 10
       0.000000000000  1  3  8  6  8  9
       0.000000000000  1  3  8  6  8 10
       0.000000000000  1  3  8  6  9 10
       0.000000000000  1  3  8  7  8  9
       0.000000000000  1  3  8  7  8 10
       0.000000000000  1  3  8  7  9 10
       0.000000000000  1  3  8  8  9 10
       0.000000000000  1  3  9  1  2  3
       0.000000000000  1  3  9  1  2  4
       0.002680278092  1  3  9  1  2  5
       0.000852353717  1  3  9  1  2  6
       0.000000000000  1  3  9  1  2  7
       0.000000000000  1  3  9  1  2  8
       0.000000000000  1  3  9  1  2  9
       0.000000000000  1  3  9  1  2 10
       0.000000000000  1  3  9  1  3  4
       0.000000000000  1  3  9  1  3  5
       0.000000000000  1  3  9  1  3  6
       0.000000000000  1  3  9  1  3  7
       0.000000000000  1  3  9  1  3  8
      -0.001174786650  1  3  9  1  3  9
       0.000000000000  1  3  9  1  3 10
      -0.000040466782  1  3  9  1  4  5
      -0.000012871456  1  3  9  1  4  6
       0.000000000000  1  3  9  1  4  7
       0.000000000000  1  3  9  1  4  8
       0.000000000000  1  3  9  1  4  9
       0.000000000000  1  3  9  1  4 10
       0.000000000000  1  3  9  1  5  6
       0.000000000000  1  3  9  1  5  7
       0.000000000000  1  3  9  1  5  8
       0.000000000000  1  3  9  1  5  9
       0.000032904352  1  3  9  1  5 10
       0.000000000000  1  3  9  1  6  7
       0.000000000000  1  3  9  1  6  8
       0.000000000000  1  3  9  1  6  9
       0.000010475258  1  3  9  1  6 10
       0.000000000000  1  3  9  1  7  8
       0.000056320615  1  3  9  1  7  9
       0.000000000000  1  3  9  1  7 10
       0.000000000000  1  3  9  1  8  9
       0.000000000000  1  3  9  1  8 10
       0.000000000000  1  3  9  1  9 10
       0.000000000000  1  3  9  2  3  4
       0.000943468340  1  3  9  2  3  5
       0.000300061015  1  3  9  2  3  6
       0.000000000000  1  3  9  2  3  7
       0.000000000000  1  3  9  2  3  8
       0.000000000000  1  3  9  2  3  9
       0.000000000000  1  3  9  2  3 10
       0.000000000000  1  3  9  2  4  5
       0.000000000000  1  3  9  2  4  6
       0.000000000000  1  3  9  2  4  7
       0.000000000000  1  3  9  2  4  8
       0.000044179627  1  3  9  2  4  9
       0.000000000000  1  3  9  2  4 10
       0.000000000000  1  3  9  2  5  6
       0.000049019002  1  3  9  2  5  7
       0.000000000000  1  3  9  2  5  8
       0.000000000000  1  3  9  2  5  9
       0.000000000000  1  3  9  2  5 10
       0.000015600226  1  3  9  2  6  7
       0.000000000000  1  3  9  2  6  8
       0.000000000000  1  3  9  2  6  9
       0.000000000000  1  3  9  2  6 10
       0.000000000000  1  3  9  2  7  8
       0.000000000000  1  3  9  2  7  9
       0.000000000000  1  3  9  2  7 10
       0.000000000000  1  3  9  2  8  9
       0.000000000000  1  3  9  2  8 10
      -0.000041897032  1  3  9  2  9 10
       0.000004424341  1  3  9  3  4  5
       0.000001410449  1  3  9  3  4  6
       0.000000000000  1  3  9  3  4  7
       0.000000000000  1  3  9  3  4  8
       0.000000000000  1  3  9  3  4  9
       0.000000000000  1  3  9  3  4 10
       0.000000000000  1  3  9  3  5  6
       0.000000000000  1  3  9  3  5  7
       0.000000000000  1  3  9  3  5  8
       0.000000000000  1  3  9  3  5  9
      -0.000003506605  1  3  9  3  5 10
       0.000000000000  1  3  9  3  6  7
       0.000000000000  1  3  9  3  6  8
       0.000000000000  1  3  9  3  6  9
      -0.000001130407  1  3  9  3  6 10
       0.000000000000  1  3  9  3  7  8
       0.000001651258  1  3  9  3  7  9
       0.000000000000  1  3  9  3  7 10
       0.000000000000  1  3  9  3  8  9
       0.000000000000  1  3  9  3  8 10
       0.000000000000  1  3  9  3  9 10
       0.000000000000  1  3  9  4  5  6
      -0.000000367822  1  3  9  4  5  7
       0.000000000000  1  3  9  4  5  8
       0.000000000000  1  3  9  4  5  9
       0.000000000000  1  3  9  4  5 10
      -0.000000114901  1  3  9  4  6  7
       0.000000000000  1  3  9  4  6  8
       0.000000000000  1  3  9  4  6  9
       0.000000000000  1  3  9  4  6 10
       0.000000000000  1  3  9  4  7  8
       0.000000000000  1  3  9  4  7  9
       0.000000000000  1  3  9  4  7 10
       0.000000000000  1  3  9  4  8  9
       0.000000000000  1  3  9  4  8 10
       0.000000604383  1  3  9  4  9 10
       0.000000000000  1  3  9  5  6  7
       0.000000457868  1  3  9  5  6  8
       0.000000000000  1  3  9  5  6  9
       0.000000000000  1  3  9  5  6 10
       0.000000000000  1  3  9  5  7  8
       0.000000000000  1  3  9  5  7  9
       0.000000953920  1  3  9  5  7 10
       0.000000000000  1  3  9  5  8  9
       0.000000000000  1  3  9  5  8 10
       0.000000000000  1  3  9  5  9 10
       0.000000000000  1  3  9  6  7  8
       0.000000000000  1  3  9  6  7  9
       0.000000308333  1  3  9  6  7 10
       0.000000000000  1  3  9  6  8  9
       0.000000000000  1  3  9  6  8 10
       0.000000000000  1  3  9  6  9 10
       0.000000000000  1  3  9  7  8  9
       0.000000000000  1  3  9  7  8 10
       0.000000000000  1  3  9  7  9 10
       0.000000000000  1  3  9  8  9 10
      -0.000957187968  1  3 10  1  2  3
[...]
       0.000000000000  7  8  9  1  6  9
       0.000000000000  7  8  9  1  6 10
       0.000000000000  7  8  9  1  7  8
       0.000000000000  7  8  9  1  7  9
       0.000000000000  7  8  9  1  7 10
       0.000000038219  7  8  9  1  8  9
       0.000000000000  7  8  9  1  8 10
       0.000000000000  7  8  9  1  9 10
       0.000000000000  7  8  9  2  3  4
       0.000000000000  7  8  9  2  3  5
       0.000000000000  7  8  9  2  3  6
       0.000000000000  7  8  9  2  3  7
       0.000000000000  7  8  9  2  3  8
       0.000000000000  7  8  9  2  3  9
       0.000000000000  7  8  9  2  3 10
       0.000000000000  7  8  9  2  4  5
       0.000000000000  7  8  9  2  4  6
       0.000000000000  7  8  9  2  4  7
       0.000000000000  7  8  9  2  4  8
       0.000000000000  7  8  9  2  4  9
       0.000000000000  7  8  9  2  4 10
       0.000000000000  7  8  9  2  5  6
       0.000000000000  7  8  9  2  5  7
      -0.000000209172  7  8  9  2  5  8
      -0.000000068923  7  8  9  2  5  9
       0.000000000000  7  8  9  2  5 10
       0.000000000000  7  8  9  2  6  7
      -0.000000068923  7  8  9  2  6  8
       0.000000209172  7  8  9  2  6  9
       0.000000000000  7  8  9  2  6 10
       0.000000000000  7  8  9  2  7  8
       0.000000000000  7  8  9  2  7  9
       0.000000000000  7  8  9  2  7 10
       0.000000000000  7  8  9  2  8  9
       0.000000000000  7  8  9  2  8 10
       0.000000000000  7  8  9  2  9 10
       0.000000000000  7  8  9  3  4  5
       0.000000000000  7  8  9  3  4  6
       0.000000000000  7  8  9  3  4  7
       0.000000000000  7  8  9  3  4  8
       0.000000000000  7  8  9  3  4  9
       0.000000000000  7  8  9  3  4 10
      -0.000000113074  7  8  9  3  5  6
       0.000000000000  7  8  9  3  5  7
       0.000000000000  7  8  9  3  5  8
       0.000000000000  7  8  9  3  5  9
       0.000000000000  7  8  9  3  5 10
       0.000000000000  7  8  9  3  6  7
       0.000000000000  7  8  9  3  6  8
       0.000000000000  7  8  9  3  6  9
       0.000000000000  7  8  9  3  6 10
       0.000000000000  7  8  9  3  7  8
       0.000000000000  7  8  9  3  7  9
       0.000000000000  7  8  9  3  7 10
      -0.000000130587  7  8  9  3  8  9
       0.000000000000  7  8  9  3  8 10
       0.000000000000  7  8  9  3  9 10
       0.000000000000  7  8  9  4  5  6
       0.000000000000  7  8  9  4  5  7
       0.000000000000  7  8  9  4  5  8
       0.000000000000  7  8  9  4  5  9
       0.000000000000  7  8  9  4  5 10
       0.000000000000  7  8  9  4  6  7
       0.000000000000  7  8  9  4  6  8
       0.000000000000  7  8  9  4  6  9
       0.000000000000  7  8  9  4  6 10
       0.000000000000  7  8  9  4  7  8
       0.000000000000  7  8  9  4  7  9
       0.000000000000  7  8  9  4  7 10
       0.000000000000  7  8  9  4  8  9
       0.000000000000  7  8  9  4  8 10
       0.000000000000  7  8  9  4  9 10
      -0.000000147567  7  8  9  5  6  7
       0.000000000000  7  8  9  5  6  8
       0.000000000000  7  8  9  5  6  9
       0.000000000000  7  8  9  5  6 10
       0.000000000000  7  8  9  5  7  8
       0.000000000000  7  8  9  5  7  9
       0.000000000000  7  8  9  5  7 10
       0.000000000000  7  8  9  5  8  9
       0.000000000000  7  8  9  5  8 10
       0.000000000000  7  8  9  5  9 10
       0.000000000000  7  8  9  6  7  8
       0.000000000000  7  8  9  6  7  9
       0.000000000000  7  8  9  6  7 10
       0.000000000000  7  8  9  6  8  9
       0.000000000000  7  8  9  6  8 10
       0.000000000000  7  8  9  6  9 10
      -0.000000207720  7  8  9  7  8  9
       0.000000000000  7  8  9  7  8 10
       0.000000000000  7  8  9  7  9 10
       0.000000000000  7  8  9  8  9 10
       0.000000000000  7  8 10  1  2  3
       0.000000000000  7  8 10  1  2  4
       0.000000000000  7  8 10  1  2  5
       0.000000000000  7  8 10  1  2  6
       0.000000000000  7  8 10  1  2  7
       0.000005282111  7  8 10  1  2  8
       0.000000000000  7  8 10  1  2  9
       0.000000000000  7  8 10  1  2 10
       0.000000000000  7  8 10  1  3  4
       0.000000338549  7  8 10  1  3  5
      -0.000001060222  7  8 10  1  3  6
       0.000000000000  7  8 10  1  3  7
       0.000000000000  7  8 10  1  3  8
       0.000000000000  7  8 10  1  3  9
       0.000000000000  7  8 10  1  3 10
       0.000000000000  7  8 10  1  4  5
       0.000000000000  7  8 10  1  4  6
       0.000000000000  7  8 10  1  4  7
      -0.000000706582  7  8 10  1  4  8
       0.000000000000  7  8 10  1  4  9
       0.000000000000  7  8 10  1  4 10
       0.000000000000  7  8 10  1  5  6
       0.000000095130  7  8 10  1  5  7
       0.000000000000  7  8 10  1  5  8
       0.000000000000  7  8 10  1  5  9
       0.000000000000  7  8 10  1  5 10
      -0.000000313323  7  8 10  1  6  7
       0.000000000000  7  8 10  1  6  8
       0.000000000000  7  8 10  1  6  9
       0.000000000000  7  8 10  1  6 10
       0.000000000000  7  8 10  1  7  8
       0.000000000000  7  8 10  1  7  9
       0.000000000000  7  8 10  1  7 10
       0.000000000000  7  8 10  1  8  9
       0.000000155689  7  8 10  1  8 10
       0.000000000000  7  8 10  1  9 10
       0.000000000000  7  8 10  2  3  4
       0.000000000000  7  8 10  2  3  5
       0.000000000000  7  8 10  2  3  6
       0.000000000000  7  8 10  2  3  7
       0.000001918059  7  8 10  2  3  8
       0.000000000000  7  8 10  2  3  9
       0.000000000000  7  8 10  2  3 10
      -0.000000359659  7  8 10  2  4  5
       0.000001156927  7  8 10  2  4  6
       0.000000000000  7  8 10  2  4  7
       0.000000000000  7  8 10  2  4  8
       0.000000000000  7  8 10  2  4  9
       0.000000000000  7  8 10  2  4 10
       0.000000000000  7  8 10  2  5  6
       0.000000000000  7  8 10  2  5  7
       0.000000000000  7  8 10  2  5  8
       0.000000000000  7  8 10  2  5  9
      -0.000000465280  7  8 10  2  5 10
       0.000000000000  7  8 10  2  6  7
       0.000000000000  7  8 10  2  6  8
       0.000000000000  7  8 10  2  6  9
       0.000001485041  7  8 10  2  6 10
       0.000001447745  7  8 10  2  7  8
       0.000000000000  7  8 10  2  7  9
       0.000000000000  7  8 10  2  7 10
       0.000000000000  7  8 10  2  8  9
       0.000000000000  7  8 10  2  8 10
       0.000000000000  7  8 10  2  9 10
       0.000000000000  7  8 10  3  4  5
       0.000000000000  7  8 10  3  4  6
       0.000000000000  7  8 10  3  4  7
       0.000000161363  7  8 10  3  4  8
       0.000000000000  7  8 10  3  4  9
       0.000000000000  7  8 10  3  4 10
       0.000000000000  7  8 10  3  5  6
       0.000000076477  7  8 10  3  5  7
       0.000000000000  7  8 10  3  5  8
       0.000000000000  7  8 10  3  5  9
       0.000000000000  7  8 10  3  5 10
      -0.000000247268  7  8 10  3  6  7
       0.000000000000  7  8 10  3  6  8
       0.000000000000  7  8 10  3  6  9
       0.000000000000  7  8 10  3  6 10
       0.000000000000  7  8 10  3  7  8
       0.000000000000  7  8 10  3  7  9
       0.000000000000  7  8 10  3  7 10
       0.000000000000  7  8 10  3  8  9
      -0.000000343387  7  8 10  3  8 10
       0.000000000000  7  8 10  3  9 10
       0.000000000000  7  8 10  4  5  6
       0.000000000000  7  8 10  4  5  7
       0.000000000000  7  8 10  4  5  8
       0.000000000000  7  8 10  4  5  9
       0.000000076076  7  8 10  4  5 10
       0.000000000000  7  8 10  4  6  7
       0.000000000000  7  8 10  4  6  8
       0.000000000000  7  8 10  4  6  9
      -0.000000253881  7  8 10  4  6 10
      -0.000000428287  7  8 10  4  7  8
       0.000000000000  7  8 10  4  7  9
       0.000000000000  7  8 10  4  7 10
       0.000000000000  7  8 10  4  8  9
       0.000000000000  7  8 10  4  8 10
       0.000000000000  7  8 10  4  9 10
       0.000000000000  7  8 10  5  6  7
       0.000000000000  7  8 10  5  6  8
       0.000000000000  7  8 10  5  6  9
       0.000000000000  7  8 10  5  6 10
       0.000000000000  7  8 10  5  7  8
       0.000000000000  7  8 10  5  7  9
       0.000000000000  7  8 10  5  7 10
       0.000000000000  7  8 10  5  8  9
       0.000000000000  7  8 10  5  8 10
       0.000000000000  7  8 10  5  9 10
       0.000000000000  7  8 10  6  7  8
       0.000000000000  7  8 10  6  7  9
       0.000000000000  7  8 10  6  7 10
       0.000000000000  7  8 10  6  8  9
       0.000000000000  7  8 10  6  8 10
       0.000000000000  7  8 10  6  9 10
       0.000000000000  7  8 10  7  8  9
      -0.000000659470  7  8 10  7  8 10
       0.000000000000  7  8 10  7  9 10
       0.000000000000  7  8 10  8  9 10
       0.000000000000  7  9 10  1  2  3
       0.000000000000  7  9 10  1  2  4
       0.000000000000  7  9 10  1  2  5
       0.000000000000  7  9 10  1  2  6
       0.000000000000  7  9 10  1  2  7
       0.000000000000  7  9 10  1  2  8
       0.000005282111  7  9 10  1  2  9
       0.000000000000  7  9 10  1  2 10
       0.000000000000  7  9 10  1  3  4
      -0.000001060222  7  9 10  1  3  5
      -0.000000338549  7  9 10  1  3  6
       0.000000000000  7  9 10  1  3  7
       0.000000000000  7  9 10  1  3  8
       0.000000000000  7  9 10  1  3  9
       0.000000000000  7  9 10  1  3 10
       0.000000000000  7  9 10  1  4  5
       0.000000000000  7  9 10  1  4  6
       0.000000000000  7  9 10  1  4  7
       0.000000000000  7  9 10  1  4  8
      -0.000000706582  7  9 10  1  4  9
       0.000000000000  7  9 10  1  4 10
       0.000000000000  7  9 10  1  5  6
      -0.000000313323  7  9 10  1  5  7
       0.000000000000  7  9 10  1  5  8
       0.000000000000  7  9 10  1  5  9
       0.000000000000  7  9 10  1  5 10
      -0.000000095130  7  9 10  1  6  7
       0.000000000000  7  9 10  1  6  8
       0.000000000000  7  9 10  1  6  9
       0.000000000000  7  9 10  1  6 10
       0.000000000000  7  9 10  1  7  8
       0.000000000000  7  9 10  1  7  9
       0.000000000000  7  9 10  1  7 10
       0.000000000000  7  9 10  1  8  9
       0.000000000000  7  9 10  1  8 10
       0.000000155689  7  9 10  1  9 10
       0.000000000000  7  9 10  2  3  4
       0.000000000000  7  9 10  2  3  5
       0.000000000000  7  9 10  2  3  6
       0.000000000000  7  9 10  2  3  7
       0.000000000000  7  9 10  2  3  8
       0.000001918059  7  9 10  2  3  9
       0.000000000000  7  9 10  2  3 10
       0.000001156927  7  9 10  2  4  5
       0.000000359659  7  9 10  2  4  6
       0.000000000000  7  9 10  2  4  7
       0.000000000000  7  9 10  2  4  8
       0.000000000000  7  9 10  2  4  9
       0.000000000000  7  9 10  2  4 10
       0.000000000000  7  9 10  2  5  6
       0.000000000000  7  9 10  2  5  7
       0.000000000000  7  9 10  2  5  8
       0.000000000000  7  9 10  2  5  9
       0.000001485041  7  9 10  2  5 10
       0.000000000000  7  9 10  2  6  7
       0.000000000000  7  9 10  2  6  8
       0.000000000000  7  9 10  2  6  9
       0.000000465280  7  9 10  2  6 10
       0.000000000000  7  9 10  2  7  8
       0.000001447745  7  9 10  2  7  9
       0.000000000000  7  9 10  2  7 10
       0.000000000000  7  9 10  2  8  9
       0.000000000000  7  9 10  2  8 10
       0.000000000000  7  9 10  2  9 10
       0.000000000000  7  9 10  3  4  5
       0.000000000000  7  9 10  3  4  6
       0.000000000000  7  9 10  3  4  7
       0.000000000000  7  9 10  3  4  8
       0.000000161363  7  9 10  3  4  9
       0.000000000000  7  9 10  3  4 10
       0.000000000000  7  9 10  3  5  6
      -0.000000247268  7  9 10  3  5  7
       0.000000000000  7  9 10  3  5  8
       0.000000000000  7  9 10  3  5  9
       0.000000000000  7  9 10  3  5 10
      -0.000000076477  7  9 10  3  6  7
       0.000000000000  7  9 10  3  6  8
       0.000000000000  7  9 10  3  6  9
       0.000000000000  7  9 10  3  6 10
       0.000000000000  7  9 10  3  7  8
       0.000000000000  7  9 10  3  7  9
       0.000000000000  7  9 10  3  7 10
       0.000000000000  7  9 10  3  8  9
       0.000000000000  7  9 10  3  8 10
      -0.000000343387  7  9 10  3  9 10
       0.000000000000  7  9 10  4  5  6
       0.000000000000  7  9 10  4  5  7
       0.000000000000  7  9 10  4  5  8
       0.000000000000  7  9 10  4  5  9
      -0.000000253881  7  9 10  4  5 10
       0.000000000000  7  9 10  4  6  7
       0.000000000000  7  9 10  4  6  8
       0.000000000000  7  9 10  4  6  9
      -0.000000076076  7  9 10  4  6 10
       0.000000000000  7  9 10  4  7  8
      -0.000000428287  7  9 10  4  7  9
       0.000000000000  7  9 10  4  7 10
       0.000000000000  7  9 10  4  8  9
       0.000000000000  7  9 10  4  8 10
       0.000000000000  7  9 10  4  9 10
       0.000000000000  7  9 10  5  6  7
       0.000000000000  7  9 10  5  6  8
       0.000000000000  7  9 10  5  6  9
       0.000000000000  7  9 10  5  6 10
       0.000000000000  7  9 10  5  7  8
       0.000000000000  7  9 10  5  7  9
       0.000000000000  7  9 10  5  7 10
       0.000000000000  7  9 10  5  8  9
       0.000000000000  7  9 10  5  8 10
       0.000000000000  7  9 10  5  9 10
       0.000000000000  7  9 10  6  7  8
       0.000000000000  7  9 10  6  7  9
       0.000000000000  7  9 10  6  7 10
       0.000000000000  7  9 10  6  8  9
       0.000000000000  7  9 10  6  8 10
       0.000000000000  7  9 10  6  9 10
       0.000000000000  7  9 10  7  8  9
       0.000000000000  7  9 10  7  8 10
      -0.000000659470  7  9 10  7  9 10
       0.000000000000  7  9 10  8  9 10
       0.000000000000  8  9 10  1  2  3
       0.000000000000  8  9 10  1  2  4
       0.000000000000  8  9 10  1  2  5
       0.000000000000  8  9 10  1  2  6
       0.000000000000  8  9 10  1  2  7
       0.000000000000  8  9 10  1  2  8
       0.000000000000  8  9 10  1  2  9
       0.000000000000  8  9 10  1  2 10
       0.000000000000  8  9 10  1  3  4
       0.000000000000  8  9 10  1  3  5
       0.000000000000  8  9 10  1  3  6
       0.000000000000  8  9 10  1  3  7
       0.000000000000  8  9 10  1  3  8
       0.000000000000  8  9 10  1  3  9
       0.000000000000  8  9 10  1  3 10
       0.000000000000  8  9 10  1  4  5
       0.000000000000  8  9 10  1  4  6
       0.000000000000  8  9 10  1  4  7
       0.000000000000  8  9 10  1  4  8
       0.000000000000  8  9 10  1  4  9
       0.000000000000  8  9 10  1  4 10
       0.000000000000  8  9 10  1  5  6
       0.000000000000  8  9 10  1  5  7
      -0.000000597946  8  9 10  1  5  8
      -0.000000171285  8  9 10  1  5  9
       0.000000000000  8  9 10  1  5 10
       0.000000000000  8  9 10  1  6  7
      -0.000000171285  8  9 10  1  6  8
       0.000000597946  8  9 10  1  6  9
       0.000000000000  8  9 10  1  6 10
       0.000000000000  8  9 10  1  7  8
       0.000000000000  8  9 10  1  7  9
       0.000000000000  8  9 10  1  7 10
       0.000000000000  8  9 10  1  8  9
       0.000000000000  8  9 10  1  8 10
       0.000000000000  8  9 10  1  9 10
       0.000000000000  8  9 10  2  3  4
       0.000000000000  8  9 10  2  3  5
       0.000000000000  8  9 10  2  3  6
       0.000000000000  8  9 10  2  3  7
       0.000000000000  8  9 10  2  3  8
       0.000000000000  8  9 10  2  3  9
       0.000000000000  8  9 10  2  3 10
       0.000000000000  8  9 10  2  4  5
       0.000000000000  8  9 10  2  4  6
       0.000000000000  8  9 10  2  4  7
       0.000000000000  8  9 10  2  4  8
       0.000000000000  8  9 10  2  4  9
       0.000000000000  8  9 10  2  4 10
       0.000001665237  8  9 10  2  5  6
       0.000000000000  8  9 10  2  5  7
       0.000000000000  8  9 10  2  5  8
       0.000000000000  8  9 10  2  5  9
       0.000000000000  8  9 10  2  5 10
       0.000000000000  8  9 10  2  6  7
       0.000000000000  8  9 10  2  6  8
       0.000000000000  8  9 10  2  6  9
       0.000000000000  8  9 10  2  6 10
       0.000000000000  8  9 10  2  7  8
       0.000000000000  8  9 10  2  7  9
       0.000000000000  8  9 10  2  7 10
       0.000000742543  8  9 10  2  8  9
       0.000000000000  8  9 10  2  8 10
       0.000000000000  8  9 10  2  9 10
       0.000000000000  8  9 10  3  4  5
       0.000000000000  8  9 10  3  4  6
       0.000000000000  8  9 10  3  4  7
       0.000000000000  8  9 10  3  4  8
       0.000000000000  8  9 10  3  4  9
       0.000000000000  8  9 10  3  4 10
       0.000000000000  8  9 10  3  5  6
       0.000000000000  8  9 10  3  5  7
       0.000000025840  8  9 10  3  5  8
       0.000000000000  8  9 10  3  5  9
       0.000000000000  8  9 10  3  5 10
       0.000000000000  8  9 10  3  6  7
       0.000000000000  8  9 10  3  6  8
      -0.000000025840  8  9 10  3  6  9
       0.000000000000  8  9 10  3  6 10
       0.000000000000  8  9 10  3  7  8
       0.000000000000  8  9 10  3  7  9
       0.000000000000  8  9 10  3  7 10
       0.000000000000  8  9 10  3  8  9
       0.000000000000  8  9 10  3  8 10
       0.000000000000  8  9 10  3  9 10
      -0.000000180724  8  9 10  4  5  6
       0.000000000000  8  9 10  4  5  7
       0.000000000000  8  9 10  4  5  8
       0.000000000000  8  9 10  4  5  9
       0.000000000000  8  9 10  4  5 10
       0.000000000000  8  9 10  4  6  7
       0.000000000000  8  9 10  4  6  8
       0.000000000000  8  9 10  4  6  9
       0.000000000000  8  9 10  4  6 10
       0.000000000000  8  9 10  4  7  8
       0.000000000000  8  9 10  4  7  9
       0.000000000000  8  9 10  4  7 10
      -0.000000182578  8  9 10  4  8  9
       0.000000000000  8  9 10  4  8 10
       0.000000000000  8  9 10  4  9 10
       0.000000000000  8  9 10  5  6  7
       0.000000000000  8  9 10  5  6  8
       0.000000000000  8  9 10  5  6  9
      -0.000000109486  8  9 10  5  6 10
       0.000000000000  8  9 10  5  7  8
       0.000000000000  8  9 10  5  7  9
       0.000000000000  8  9 10  5  7 10
       0.000000000000  8  9 10  5  8  9
       0.000000000000  8  9 10  5  8 10
       0.000000000000  8  9 10  5  9 10
       0.000000000000  8  9 10  6  7  8
       0.000000000000  8  9 10  6  7  9
       0.000000000000  8  9 10  6  7 10
       0.000000000000  8  9 10  6  8  9
       0.000000000000  8  9 10  6  8 10
       0.000000000000  8  9 10  6  9 10
       0.000000000000  8  9 10  7  8  9
       0.000000000000  8  9 10  7  8 10
       0.000000000000  8  9 10  7  9 10
      -0.000000068640  8  9 10  8  9 10
 /EOF
 !FCI STATE  1.1 Dipole moment          0.00000000    -0.00000000    -0.00000000
 Dipole moment /Debye                   0.00000000    -0.00000000    -0.00000000


 **********************************************************************************************************************************
 DATASETS  * FILE   NREC   LENGTH (MB)   RECORD NAMES
              1      19       29.95       500      700      610      900      950      970     1000      129      960     1100   
                                          VAR     GEOM    BASINP   SYMINP    ZMAT    AOBASIS   BASIS     P2S    ABASIS      S 
                                         1400     1410     1200     1210     1080     1600     1650     1300     1700   
                                           T        V       H0       H01     AOSYM     SMH    MOLCAS    ERIS     OPER   

              3       5       14.77       500      610      700     1000     2100   
                                          VAR    BASINP    GEOM     BASIS     RHF  

 PROGRAMS   *        TOTAL       FCI       INT   RESTART
 CPU TIMES  *         0.33      0.10      0.13      0.02
 REAL TIME  *         0.50 SEC
 DISK USED  *        49.42 MB
 **********************************************************************************************************************************
 Molecular orbitals read from record     2100.3  Type=RHF/CANONICAL (state 1.1)
 Occupation numbers read from record     2100.3  Type=RHF/RHF (state 1.1)
 Orbital energies read from record       2100.3  Type=RHF/CANONICAL (state 1.1)
 Redundancy group numbers read from rec  2100.3  Type=RHF/RHF (state 1.1)

 FCI/STO-3G energy=    -14.667372039330

             FCI
    -14.66737204
 **********************************************************************************************************************************
 Molpro calculation terminated
