
 Primary working directories    : /scr/yuriaoto/job.019962/molpro.RCuHLKjW4P
 Secondary working directories  : /scr/yuriaoto/job.019962/molpro.RCuHLKjW4P
 Wavefunction directory         : /scr/yuriaoto/job.019962/
 Main file repository           : /scr/yuriaoto/job.019962/molpro.RCuHLKjW4P/

 id        : yuriaoto

 Nodes             nprocs
 t-rex.ufabc.int.br    1

 Using customized tuning parameters: mindgm=1; mindgv=20; mindgc=4; mindgr=1; noblas=0; minvec=7
 default implementation of scratch files=df  

 ***,
 memory,40,m
 gprint,orbital=15,basis
 gthresh,thrprint=0
 file,3,wfu.dat,new
 
 basis = STO-3G
 nosym
 geom={Li1;Li2,Li1,r}
 
 
 r = 5.0
 
 {rhf
 wf,6,1,0
 orbital,2100.2
 }
 {uhf,
 start,2100.2
 rotate,1.1,2.1,45
 rotate,3.1,4.1,45
 wf,6,1,0
 }
 
 
 r = 5.0
 
 {uhf
 wf,6,1,0
 orbital,2100.3
 }

 Variables initialized (925), CPU time= 0.00 sec
 Commands  initialized (758), CPU time= 0.01 sec, 615 directives.
 Default parameters read. Elapsed time= 0.04 sec

 Checking input...
 Passed
1


                                         ***  PROGRAM SYSTEM MOLPRO  ***
                                       Copyright, TTI GmbH Stuttgart, 2015
                                    Version 2018.0 linked Mar 12 2019 16:43:42


 **********************************************************************************************************************************
 LABEL *                                                                                 
  64 bit serial version                                                                  DATE: 14-Apr-19          TIME: 13:44:35  
 **********************************************************************************************************************************

 SHA1:             f70ef82e76f3c4ffe6208eff7888be440c8d4c33
 **********************************************************************************************************************************


 THRESHOLDS:

 ZERO    =  1.00D-12  ONEINT  =  1.00D-12  TWOINT  =  1.00D-11  PREFAC  =  1.00D-14  XXXXXX  =  1.00D-09  EORDER  =  1.00D-04
 ENERGY  =  0.00D+00  ETEST   =  0.00D+00  EDENS   =  0.00D+00  THRDEDEF=  1.00D-06  GRADIENT=  1.00D-02  STEP    =  1.00D-03
 ORBITAL =  1.00D-05  CIVEC   =  1.00D-05  COEFF   =  1.00D-04  PRINTCI =  5.00D-02  PUNCHCI =  9.90D+01  OPTGRAD =  3.00D-04
 OPTENERG=  1.00D-06  OPTSTEP =  3.00D-04  THRGRAD =  1.00D-10  COMPRESS=  1.00D-11  VARMIN  =  1.00D-07  VARMAX  =  1.00D-03
 THRDOUB =  0.00D+00  THRDIV  =  1.00D-05  THRRED  =  1.00D-07  THRPSP  =  1.00D+00  THRDC   =  1.00D-10  THRCS   =  1.00D-10
 THRNRM  =  1.00D-08  THREQ   =  0.00D+00  THRDE   =  1.00D+00  THRREF  =  1.00D-05  SPARFAC =  1.00D+00  THRDLP  =  1.00D-07
 THRDIA  =  1.00D-10  THRDLS  =  1.00D-07  THRGPS  =  0.00D+00  THRKEX  =  0.00D+00  THRDIS  =  2.00D-01  THRVAR  =  1.00D-10
 THRLOC  =  1.00D-06  THRGAP  =  1.00D-06  THRLOCT = -1.00D+00  THRGAPT = -1.00D+00  THRORB  =  1.00D-06  THRMLTP =  0.00D+00
 THRCPQCI=  1.00D-10  KEXTA   =  0.00D+00  THRCOARS=  0.00D+00  SYMTOL  =  1.00D-06  GRADTOL =  1.00D-06  THROVL  =  1.00D-08
 THRORTH =  1.00D-08  GRID    =  1.00D-06  GRIDMAX =  1.00D-03  DTMAX   =  0.00D+00  THROCCDE=  1.00D-01  THROCCDE=  1.00D-01
 THRPRINT=  0.00D+00


 Variable memory set to   40000000 words,  buffer space 



 Permanent file  3  wfu.dat  assigned.  Implementation=df  



 **********************************************************************************************************************************
 DATASETS  * FILE   NREC   LENGTH (MB)   RECORD NAMES
              3       1        0.03       500   
                                          VAR  

 PROGRAMS   *        TOTAL      FILE
 CPU TIMES  *         0.12      0.00
 REAL TIME  *         0.13 SEC
 DISK USED  *         0.09 MB
 **********************************************************************************************************************************
 SETTING BASIS          =    STO-3G
 ZSYMEL=NOSYM

 SETTING R              =         5.00000000                                  


 Recomputing integrals since basis changed


 Using spherical harmonics

 Library entry LI     S STO-3G               selected for orbital group  1
 Library entry LI     P STO-3G               selected for orbital group  1


 PROGRAM * SEWARD (Integral evaluation for generally contracted gaussian basis sets)     Author: Roland Lindh, 1990

 Geometry written to block  1 of record 700

 Orientation using atomic masses  
 Molecule type: Linear
 Rotational constants:      20.8009354     20.8009354      0.0000000 GHz  (calculated with average atomic masses)

 Point group  C1  



 ATOMIC COORDINATES

 NR  ATOM    CHARGE       X              Y              Z

   1  LI1     3.00    0.000000000    0.000000000   -2.500000000
   2  LI2     3.00    0.000000000    0.000000000    2.500000000

 Bond lengths in Bohr (Angstrom)

 1-2  5.000000000
     ( 2.645886055)


 BASIS DATA

   Nr Sym  Nuc  Type         Exponents   Contraction coefficients

    1.1 A     1  1s          16.119575     0.154329
                              2.936201     0.535328
                              0.794651     0.444635
    2.1 A     1  1s           0.636290    -0.099967
                              0.147860     0.399513
                              0.048089     0.700115
    3.1 A     1  2px          0.636290     0.155916
                              0.147860     0.607684
                              0.048089     0.391957
    4.1 A     1  2py          0.636290     0.155916
                              0.147860     0.607684
                              0.048089     0.391957
    5.1 A     1  2pz          0.636290     0.155916
                              0.147860     0.607684
                              0.048089     0.391957
    6.1 A     2  1s          16.119575     0.154329
                              2.936201     0.535328
                              0.794651     0.444635
    7.1 A     2  1s           0.636290    -0.099967
                              0.147860     0.399513
                              0.048089     0.700115
    8.1 A     2  2px          0.636290     0.155916
                              0.147860     0.607684
                              0.048089     0.391957
    9.1 A     2  2py          0.636290     0.155916
                              0.147860     0.607684
                              0.048089     0.391957
   10.1 A     2  2pz          0.636290     0.155916
                              0.147860     0.607684
                              0.048089     0.391957

 NUCLEAR CHARGE:                    6
 NUMBER OF PRIMITIVE AOS:          30
 NUMBER OF SYMMETRY AOS:           30
 NUMBER OF CONTRACTIONS:           10   (  10A   )
 NUMBER OF CORE ORBITALS:           2   (   2A   )
 NUMBER OF VALENCE ORBITALS:        8   (   8A   )


 NUCLEAR REPULSION ENERGY    1.80000000

 EXTRA SYMMETRY OF AOS IN SYMMETRY 1:   1 1 2 3 1 1 1 2 3 1

 Eigenvalues of metric

         1 0.155E+00 0.713E+00 0.713E+00 0.805E+00 0.846E+00 0.104E+01 0.123E+01 0.129E+01


 Contracted 2-electron integrals neglected if value below      1.0D-11
 AO integral compression algorithm  1   Integral accuracy      1.0D-11

     0.262 MB (compressed) written to integral file ( 65.1%)


 NUMBER OF SORTED TWO-ELECTRON INTEGRALS:       1540.     BUFFER LENGTH:  32768
 NUMBER OF SEGMENTS:   1  SEGMENT LENGTH:       1540      RECORD LENGTH: 524288

 Memory used in sort:       0.56 MW

 SORT1 READ        2389. AND WROTE         512. INTEGRALS IN      1 RECORDS. CPU TIME:     0.00 SEC, REAL TIME:     0.00 SEC
 SORT2 READ         512. AND WROTE        1540. INTEGRALS IN      1 RECORDS. CPU TIME:     0.00 SEC, REAL TIME:     0.00 SEC

 FILE SIZES:   FILE 1:    30.2 MBYTE,  FILE 4:     4.2 MBYTE,   TOTAL:     34.4 MBYTE

 OPERATOR DM      FOR CENTER  0  COORDINATES:    0.000000    0.000000    0.000000


 **********************************************************************************************************************************
 DATASETS  * FILE   NREC   LENGTH (MB)   RECORD NAMES
              1      19       29.95       500      610      700      900      950      970     1000      129      960     1100   
                                          VAR    BASINP    GEOM    SYMINP    ZMAT    AOBASIS   BASIS     P2S    ABASIS      S 
                                         1400     1410     1200     1210     1080     1600     1650     1300     1700   
                                           T        V       H0       H01     AOSYM     SMH    MOLCAS    ERIS     OPER   

              3       4       12.28       500      610      700     1000   
                                          VAR    BASINP    GEOM     BASIS   

 PROGRAMS   *        TOTAL       INT      FILE
 CPU TIMES  *         0.25      0.13      0.00
 REAL TIME  *         0.39 SEC
 DISK USED  *        46.94 MB
 **********************************************************************************************************************************


 PROGRAM * RHF-SCF (CLOSED SHELL)       Authors: W. Meyer, H.-J. Werner


 NUMBER OF ELECTRONS:       3+    3-    SPACE SYMMETRY=1    SPIN SYMMETRY: Singlet 
 CONVERGENCE THRESHOLDS:    1.00E-05 (Density)    1.00E-07 (Energy)
 MAX. NUMBER OF ITERATIONS:       60
 INTERPOLATION TYPE:            DIIS
 INTERPOLATION STEPS:              2 (START)      1 (STEP)
 LEVEL SHIFTS:                  0.00 (CLOSED)  0.00 (OPEN) 




   Atom=LI basis=MINAO             lmin=0  lmax=0

 Orbital guess generated from atomic densities. Full valence occupancy:    3

 Molecular orbital dump at record        2100.2

 Initial occupancy:   3

 ITERATION    DDIFF          GRAD             ENERGY        2-EL.EN.            DIPOLE MOMENTS         DIIS   ORB.
    1      0.000D+00      0.000D+00       -14.63822206     13.601098    0.00000    0.00000   -0.00000    0    start
    2      0.000D+00      0.264D-02       -14.63857650     13.620982    0.00000    0.00000    0.00000    1    diag
    3      0.461D-02      0.730D-03       -14.63863905     13.634363    0.00000    0.00000   -0.00000    2    diag
    4      0.263D-02      0.133D-03       -14.63864283     13.638984    0.00000   -0.00000    0.00000    3    diag
    5      0.832D-03      0.252D-05       -14.63864283     13.639061    0.00000   -0.00000    0.00000    4    diag
    6      0.145D-04      0.502D-07       -14.63864283     13.639062    0.00000   -0.00000    0.00000    5    diag
    7      0.273D-06      0.961D-09       -14.63864283     13.639062    0.00000   -0.00000    0.00000    0    orth

 Final occupancy:   3

 !RHF STATE  1.1 Energy               -14.638642833983
 Nuclear energy                         1.80000000
 One-electron energy                  -23.25817394
 Two-electron energy                    6.81953110
 Virial quotient                       -0.98778634
 !RHF STATE  1.1 Dipole moment          0.00000000    -0.00000000     0.00000000
 Dipole moment /Debye                   0.00000000    -0.00000000     0.00000000

 MOLECULAR ORBITALS
 ==================

   Orb  Occ    Energy       Coefficients

                            1 1s      1 1s      1 2px     1 2py     1 2pz     2 1s      2 1s      2 2px     2 2py     2 2pz  


   1.1   2    -2.3298     0.700876  0.020240  0.000000 -0.000000 -0.001433  0.700876  0.020240 -0.000000  0.000000  0.001433

   2.1   2    -2.3297     0.700425  0.037879  0.000000 -0.000000  0.008385 -0.700425 -0.037879  0.000000 -0.000000  0.008385

   3.1   2    -0.1501    -0.198883  0.565965 -0.000000  0.000000  0.101260 -0.198883  0.565965  0.000000 -0.000000 -0.101260

   4.1   0     0.0834    -0.179036  0.700445 -0.000000  0.000000 -0.308052  0.179036 -0.700445 -0.000000  0.000000 -0.308052

   5.1   0     0.1331    -0.000000 -0.000000  0.623222 -0.007706  0.000000  0.000000 -0.000000  0.623222 -0.007706 -0.000000

   6.1   0     0.1331     0.000000 -0.000000  0.007706  0.623222  0.000000 -0.000000 -0.000000  0.007706  0.623222 -0.000000

   7.1   0     0.1583     0.032976 -0.291071 -0.000000 -0.000000  0.643089  0.032976 -0.291071 -0.000000 -0.000000 -0.643089

   8.1   0     0.2418     0.000000 -0.000000 -0.243922  0.801174  0.000000  0.000000 -0.000000  0.243922 -0.801174 -0.000000

   9.1   0     0.2418    -0.000000  0.000000  0.801174  0.243922 -0.000000 -0.000000  0.000000 -0.801174 -0.243922  0.000000

  10.1   0     0.4743    -0.136792  1.268472  0.000000 -0.000000  1.221702  0.136792 -1.268472  0.000000 -0.000000  1.221702


 HOMO      3.1    -0.150071 =      -4.0836eV
 LUMO      4.1     0.083362 =       2.2684eV
 LUMO-HOMO         0.233433 =       6.3520eV


 **********************************************************************************************************************************
 DATASETS  * FILE   NREC   LENGTH (MB)   RECORD NAMES
              1      19       29.95       500      610      700      900      950      970     1000      129      960     1100   
                                          VAR    BASINP    GEOM    SYMINP    ZMAT    AOBASIS   BASIS     P2S    ABASIS      S 
                                         1400     1410     1200     1210     1080     1600     1650     1300     1700   
                                           T        V       H0       H01     AOSYM     SMH    MOLCAS    ERIS     OPER   

              2       4        2.75       700     1000      520     2100   
                                         GEOM     BASIS   MCVARS     RHF  

              3       4       12.28       500      610      700     1000   
                                          VAR    BASINP    GEOM     BASIS   

 PROGRAMS   *        TOTAL   RHF-SCF       INT      FILE
 CPU TIMES  *         0.33      0.08      0.13      0.00
 REAL TIME  *         0.49 SEC
 DISK USED  *        46.94 MB
 **********************************************************************************************************************************


 PROGRAM * UHF-SCF       Authors: W. Meyer, H.-J. Werner


 NUMBER OF ELECTRONS:       3+    3-    SPACE SYMMETRY=1    SPIN SYMMETRY: Singlet 
 CONVERGENCE THRESHOLDS:    1.00E-05 (Density)    1.00E-07 (Energy)
 MAX. NUMBER OF ITERATIONS:       60
 INTERPOLATION TYPE:            DIIS
 INTERPOLATION STEPS:              2 (START)      1 (STEP)
 LEVEL SHIFTS:                 -0.20 (ALPHA)  -0.20 (BETA) 



 Molecular orbitals read from record     2100.2  Type=RHF/CANONICAL (state 1.1)

 Molecular orbital dump at record        2200.3

 ROTATION OF BETA  ORBITALS   1.1    2.1       45.00 DEGREES
 ROTATION OF BETA  ORBITALS   3.1    4.1       45.00 DEGREES

 Initial alpha occupation   3
 Initial beta  occupation   3

 ITERATION    DDIFF          GRAD             ENERGY        2-EL.EN.            DIPOLE MOMENTS         DIIS
    1      0.000D+00      0.000D+00       -14.60656561     13.436078    0.00000   -0.00000    2.35737    0
    2      0.160D-01      0.724D-02       -14.61543643     13.460329    0.00000   -0.00000    2.09722    1
    3      0.289D-01      0.557D-02       -14.62902682     13.497370    0.00000   -0.00000    1.60676    2
    4      0.280D-01      0.353D-02       -14.63788942     13.496416    0.00000   -0.00000    1.05745    3
    5      0.179D-01      0.188D-02       -14.64033955     13.462476   -0.00000   -0.00000    0.62937    4
    6      0.549D-02      0.641D-03       -14.64068858     13.459546   -0.00000   -0.00000    0.46485    5
    7      0.386D-02      0.571D-03       -14.64090122     13.465679   -0.00000   -0.00000    0.32524    6
    8      0.407D-02      0.452D-03       -14.64108190     13.479577   -0.00000   -0.00000    0.17952    7
    9      0.462D-02      0.215D-03       -14.64114400     13.488404    0.00000   -0.00000   -0.00536    8
   10      0.692D-03      0.512D-04       -14.64114472     13.489410   -0.00000   -0.00000    0.01456    9
   11      0.281D-03      0.296D-04       -14.64114518     13.489112   -0.00000   -0.00000    0.00433    9
   12      0.857D-04      0.132D-04       -14.64114524     13.488728   -0.00000   -0.00000    0.00264    9
   13      0.567D-04      0.766D-05       -14.64114529     13.488516   -0.00000   -0.00000    0.00202    8
   14      0.168D-03      0.626D-05       -14.64114536     13.487851   -0.00000   -0.00000    0.00042    8
   15      0.260D-04      0.160D-05       -14.64114536     13.487728   -0.00000   -0.00000    0.00020    8
   16      0.610D-05      0.717D-06       -14.64114536     13.487722    0.00000   -0.00000    0.00000    7
   17      0.161D-05      0.194D-06       -14.64114536     13.487715    0.00000   -0.00000   -0.00000    8

 Final alpha occupancy:   3
 Final beta  occupancy:   3

 !UHF STATE  1.1 Energy               -14.641145359650
 Nuclear energy                         1.80000000
 One-electron energy                  -23.18500283
 Two-electron energy                    6.74385747
 Virial quotient                       -0.98756819
 !UHF STATE  1.1 Dipole moment          0.00000000    -0.00000000    -0.00000103
 Dipole moment /Debye                   0.00000000    -0.00000000    -0.00000262

 ELECTRON ORBITALS FOR POSITIVE SPIN
 ===================================

   Orb  Occ    Energy       Coefficients

                            1 1s      1 1s      1 2px     1 2py     1 2pz     2 1s      2 1s      2 2px     2 2py     2 2pz  


   1.1   +    -2.3499    -0.000332 -0.013066 -0.000000 -0.000000 -0.007376  0.991305  0.039797  0.000000  0.000000 -0.006387

   2.1   +    -2.3310     0.990305  0.043979  0.000000  0.000000  0.007385  0.001067 -0.014101  0.000000  0.000000  0.008048

   3.1   +    -0.1677    -0.126528  0.266241 -0.000000 -0.000000  0.130633 -0.250716  0.819280 -0.000000 -0.000000 -0.024421

   4.1   0     0.0881    -0.220205  0.744768 -0.000000 -0.000000 -0.106176  0.105684 -0.518847 -0.000000 -0.000000 -0.477575

   5.1   0     0.1233    -0.000000  0.000000  0.356755  0.328829 -0.000000 -0.000000  0.000000  0.548632  0.505687 -0.000000

   6.1   0     0.1233    -0.000000  0.000000 -0.328829  0.356755 -0.000000 -0.000000  0.000000 -0.505687  0.548632  0.000000

   7.1   0     0.1558     0.085967 -0.497065  0.000000  0.000000  0.670749 -0.002468 -0.127187 -0.000000  0.000000 -0.567163

   8.1   0     0.2374    -0.000000  0.000000  0.845075 -0.374551 -0.000000  0.000000 -0.000000 -0.667528  0.295859 -0.000000

   9.1   0     0.2374    -0.000000  0.000000  0.374551  0.845075 -0.000000  0.000000 -0.000000 -0.295859 -0.667528 -0.000000

  10.1   0     0.4626    -0.143651  1.277414  0.000000  0.000000  1.238139  0.128491 -1.244245 -0.000000 -0.000000  1.208671

 ELECTRON ORBITALS FOR NEGATIVE SPIN
 ===================================

   Orb  Occ    Energy       Coefficients

                            1 1s      1 1s      1 2px     1 2py     1 2pz     2 1s      2 1s      2 2px     2 2py     2 2pz  


   1.1   -    -2.3499     0.991305  0.039797 -0.000000 -0.000000  0.006387 -0.000332 -0.013066  0.000000 -0.000000  0.007376

   2.1   -    -2.3310    -0.001067  0.014101 -0.000000 -0.000000  0.008048 -0.990305 -0.043979 -0.000000 -0.000000  0.007385

   3.1   -    -0.1677    -0.250716  0.819280  0.000000  0.000000  0.024421 -0.126528  0.266241  0.000000  0.000000 -0.130633

   4.1   0     0.0881    -0.105684  0.518847 -0.000000 -0.000000 -0.477575  0.220205 -0.744768 -0.000000 -0.000000 -0.106176

   5.1   0     0.1233     0.000000 -0.000000  0.745811 -0.021983 -0.000000  0.000000 -0.000000  0.484972 -0.014294 -0.000000

   6.1   0     0.1233     0.000000 -0.000000  0.021983  0.745811 -0.000000  0.000000 -0.000000  0.014294  0.484972 -0.000000

   7.1   0     0.1558    -0.002468 -0.127187 -0.000000 -0.000000  0.567163  0.085967 -0.497066 -0.000000 -0.000000 -0.670749

   8.1   0     0.2374     0.000000 -0.000000  0.712087 -0.161423  0.000000 -0.000000  0.000000 -0.901487  0.204358  0.000000

   9.1   0     0.2374     0.000000  0.000000  0.161423  0.712087  0.000000 -0.000000  0.000000 -0.204358 -0.901487  0.000000

  10.1   0     0.4626    -0.128491  1.244245 -0.000000 -0.000000  1.208671  0.143651 -1.277414  0.000000  0.000000  1.238139


 HOMO      3.1    -0.167729 =      -4.5642eV
 LUMO      4.1     0.088069 =       2.3965eV
 LUMO-HOMO         0.255798 =       6.9606eV

 EXPECTATION VALUE OF S**2:             0.38255674

 NATURAL SPIN ORBITALS
 =====================

  Orbital  Occupation    Energy     Coefficients
    1.1     0.61851    -0.03531     1 1s   -0.00608     1 1s   -0.19118     1 2pz   0.17279     2 1s   -0.28043     2 1s    1.00337
                                    2 2pz   0.05676
    2.1     0.00130    -0.94141     1 1s    0.41313     1 1s    0.84816     1 2pz   0.88328     2 1s    0.57696     2 1s   -0.81678
                                    2 2pz   0.88368
    3.1     0.00012    -1.09434     1 1s   -0.47665     1 1s   -0.22193     1 2pz   0.44945     2 1s    0.51361     2 1s   -0.16570
                                    2 2pz  -0.46388
    4.1    -0.00000     0.18033     1 2px  -0.14248     1 2py  -0.05141     2 2px   0.97160     2 2py   0.35056
    5.1    -0.00000     0.18033     1 2px   0.05141     1 2py  -0.14248     2 2px  -0.35056     2 2py   0.97160
    6.1    -0.00000     0.18033     1 2px  -0.00134     1 2py   1.03291     2 2px   0.00020     2 2py  -0.15147
    7.1    -0.00000     0.18033     1 2px   1.03291     1 2py   0.00134     2 2px  -0.15147     2 2py  -0.00020
    8.1    -0.00012    -1.09434     1 1s    0.51361     1 1s   -0.16569     1 2pz   0.46390     2 1s   -0.47665     2 1s   -0.22195
                                    2 2pz  -0.44943
    9.1    -0.00130    -0.94141     1 1s    0.57696     1 1s   -0.81678     1 2pz  -0.88367     2 1s    0.41314     2 1s    0.84816
                                    2 2pz  -0.88329
   10.1    -0.61851    -0.03531     1 1s   -0.28043     1 1s    1.00337     1 2pz  -0.05676     2 1s   -0.00608     2 1s   -0.19118
                                    2 2pz  -0.17279

 NATURAL CHARGE ORBITALS
 =======================

 Occupation number threshold for pseudo-canonical orbitals: 1.9990 (occupied), 0.0010 (virtual)

 Number of pseudo-canonical occupied orbitals per symmetry:    2
 Number of active natural orbitals per symmetry:               2

   Orb     Occ        Energy       Coefficients

                                   1 1s      1 1s      1 2px     1 2py     1 2pz     2 1s      2 1s      2 2px     2 2py     2 2pz  


   1.1  2.00000    -2.340463     0.700427  0.039780 -0.000000 -0.000000  0.010216 -0.700014 -0.039767  0.000000 -0.000000  0.010216

   2.1  2.00000    -2.340407     0.699896  0.022181  0.000000 -0.000000 -0.000276  0.700310  0.022204  0.000000  0.000000  0.000270

   3.1  1.78578    -0.139396    -0.202590  0.574306  0.000000  0.000000  0.082048 -0.202590  0.574305 -0.000000 -0.000000 -0.082047

   4.1  0.21422     0.068779    -0.193992  0.844680  0.000000  0.000000 -0.162318  0.193992 -0.844680  0.000000  0.000000 -0.162319

   5.1  0.00000     0.126040     0.000000 -0.000000 -0.367738  0.503223  0.000000 -0.000000  0.000000 -0.367738  0.503223  0.000000

   6.1  0.00000     0.126040     0.000000 -0.000000  0.503223  0.367738  0.000000 -0.000000  0.000000  0.503223  0.367738  0.000000

   7.1  0.00000     0.151775     0.026132 -0.274098  0.000000  0.000000  0.645823  0.026132 -0.274097  0.000000 -0.000000 -0.645822

   8.1  0.00000     0.234626    -0.000000  0.000000 -0.342521 -0.764236  0.000000 -0.000000  0.000000  0.342521  0.764237 -0.000000

   9.1  0.00000     0.234626    -0.000000  0.000000 -0.764236  0.342521  0.000000 -0.000000 -0.000000  0.764237 -0.342521 -0.000000

  10.1  0.00000     0.457586    -0.115842  1.177291 -0.000000 -0.000000  1.249427  0.115842 -1.177291 -0.000000 -0.000000  1.249428

 Natural orbitals saved to record    2200.3 (Orbital set 3)

 Orbital spaces for UNO-CAS (Min. occupation: 0.020  Max. occupation: 1.980):

 Closed:        2
 Active:        2


 **********************************************************************************************************************************
 DATASETS  * FILE   NREC   LENGTH (MB)   RECORD NAMES
              1      19       29.95       500      610      700      900      950      970     1000      129      960     1100   
                                          VAR    BASINP    GEOM    SYMINP    ZMAT    AOBASIS   BASIS     P2S    ABASIS      S 
                                         1400     1410     1200     1210     1080     1600     1650     1300     1700   
                                           T        V       H0       H01     AOSYM     SMH    MOLCAS    ERIS     OPER   

              2       4        2.75       700     1000      520     2100   
                                         GEOM     BASIS   MCVARS     RHF  

              3       5       14.78       500      610      700     1000     2200   
                                          VAR    BASINP    GEOM     BASIS     UHF  

 PROGRAMS   *        TOTAL   UHF-SCF   RHF-SCF       INT      FILE
 CPU TIMES  *         0.47      0.13      0.08      0.13      0.00
 REAL TIME  *         0.65 SEC
 DISK USED  *        47.53 MB
 **********************************************************************************************************************************
 SETTING R              =         5.00000000                                  


 PROGRAM * UHF-SCF       Authors: W. Meyer, H.-J. Werner


 NUMBER OF ELECTRONS:       3+    3-    SPACE SYMMETRY=1    SPIN SYMMETRY: Singlet 
 CONVERGENCE THRESHOLDS:    1.00E-05 (Density)    1.00E-07 (Energy)
 MAX. NUMBER OF ITERATIONS:       60
 INTERPOLATION TYPE:            DIIS
 INTERPOLATION STEPS:              2 (START)      1 (STEP)
 LEVEL SHIFTS:                 -0.20 (ALPHA)  -0.20 (BETA) 



 Molecular orbitals read from record     2200.3  Type=UHF/ALPHA (state 1.1)
 Molecular orbitals read from record     2200.3  Type=UHF/BETA (state 1.1)

 Molecular orbital dump at record        2100.3

 Initial alpha occupation   3
 Initial beta  occupation   3

 ITERATION    DDIFF          GRAD             ENERGY        2-EL.EN.            DIPOLE MOMENTS         DIIS
    1      0.000D+00      0.000D+00       -14.64114536     13.487715    0.00000   -0.00000   -0.00000    0
    2      0.836D-08      0.468D-08       -14.64114536     13.487715    0.00000   -0.00000   -0.00000    1
    3      0.979D-08      0.261D-08       -14.64114536     13.487715   -0.00000    0.00000   -0.00000    2

 Final alpha occupancy:   3
 Final beta  occupancy:   3

 !UHF STATE  1.1 Energy               -14.641145359650
 Nuclear energy                         1.80000000
 One-electron energy                  -23.18500281
 Two-electron energy                    6.74385745
 Virial quotient                       -0.98756819
 !UHF STATE  1.1 Dipole moment         -0.00000000     0.00000000    -0.00000102
 Dipole moment /Debye                  -0.00000000     0.00000000    -0.00000259

 ELECTRON ORBITALS FOR POSITIVE SPIN
 ===================================

   Orb  Occ    Energy       Coefficients

                            1 1s      1 1s      1 2px     1 2py     1 2pz     2 1s      2 1s      2 2px     2 2py     2 2pz  


   1.1   +    -2.3499    -0.000332 -0.013066 -0.000000 -0.000000 -0.007376  0.991305  0.039797  0.000000  0.000000 -0.006387

   2.1   +    -2.3310     0.990305  0.043979  0.000000 -0.000000  0.007385  0.001067 -0.014101  0.000000 -0.000000  0.008048

   3.1   +    -0.1677    -0.126528  0.266241 -0.000000 -0.000000  0.130633 -0.250716  0.819280 -0.000000 -0.000000 -0.024421

   4.1   0     0.0881    -0.220205  0.744768 -0.000000 -0.000000 -0.106176  0.105684 -0.518847 -0.000000 -0.000000 -0.477575

   5.1   0     0.1233    -0.000000  0.000000 -0.408130  0.262360 -0.000000 -0.000000  0.000000 -0.627639  0.403468 -0.000000

   6.1   0     0.1233    -0.000000  0.000000  0.262360  0.408130 -0.000000 -0.000000  0.000000  0.403468  0.627639 -0.000000

   7.1   0     0.1558     0.085967 -0.497065  0.000000  0.000000  0.670749 -0.002468 -0.127187  0.000000  0.000000 -0.567163

   8.1   0     0.2374     0.000000 -0.000000  0.271328 -0.883641  0.000000 -0.000000 -0.000000 -0.214323  0.697991  0.000000

   9.1   0     0.2374    -0.000000  0.000000  0.883641  0.271328 -0.000000  0.000000 -0.000000 -0.697991 -0.214323 -0.000000

  10.1   0     0.4626    -0.143651  1.277414  0.000000  0.000000  1.238139  0.128491 -1.244245 -0.000000 -0.000000  1.208671

 ELECTRON ORBITALS FOR NEGATIVE SPIN
 ===================================

   Orb  Occ    Energy       Coefficients

                            1 1s      1 1s      1 2px     1 2py     1 2pz     2 1s      2 1s      2 2px     2 2py     2 2pz  


   1.1   -    -2.3499     0.991305  0.039797 -0.000000 -0.000000  0.006387 -0.000332 -0.013066  0.000000  0.000000  0.007376

   2.1   -    -2.3310    -0.001067  0.014101 -0.000000  0.000000  0.008048 -0.990305 -0.043979 -0.000000  0.000000  0.007385

   3.1   -    -0.1677    -0.250716  0.819280  0.000000  0.000000  0.024421 -0.126528  0.266241  0.000000  0.000000 -0.130633

   4.1   0     0.0881    -0.105684  0.518847 -0.000000 -0.000000 -0.477575  0.220205 -0.744768 -0.000000 -0.000000 -0.106176

   5.1   0     0.1233     0.000000 -0.000000  0.596595  0.448098 -0.000000  0.000000 -0.000000  0.387943  0.291381 -0.000000

   6.1   0     0.1233     0.000000 -0.000000 -0.448098  0.596595 -0.000000  0.000000 -0.000000 -0.291381  0.387943 -0.000000

   7.1   0     0.1558    -0.002468 -0.127187 -0.000000 -0.000000  0.567163  0.085967 -0.497066 -0.000000 -0.000000 -0.670749

   8.1   0     0.2374     0.000000  0.000000  0.729141 -0.038460  0.000000 -0.000000  0.000000 -0.923076  0.048690  0.000000

   9.1   0     0.2374     0.000000  0.000000  0.038460  0.729141  0.000000 -0.000000  0.000000 -0.048690 -0.923076  0.000000

  10.1   0     0.4626    -0.128491  1.244245 -0.000000 -0.000000  1.208671  0.143651 -1.277414  0.000000  0.000000  1.238139


 HOMO      3.1    -0.167730 =      -4.5642eV
 LUMO      4.1     0.088069 =       2.3965eV
 LUMO-HOMO         0.255799 =       6.9606eV

 EXPECTATION VALUE OF S**2:             0.38255677

 NATURAL SPIN ORBITALS
 =====================

  Orbital  Occupation    Energy     Coefficients
    1.1     0.61851    -0.03531     1 1s   -0.00608     1 1s   -0.19118     1 2pz   0.17279     2 1s   -0.28043     2 1s    1.00337
                                    2 2pz   0.05676
    2.1     0.00130    -0.94141     1 1s    0.41313     1 1s    0.84816     1 2pz   0.88328     2 1s    0.57696     2 1s   -0.81678
                                    2 2pz   0.88367
    3.1     0.00012    -1.09434     1 1s   -0.47665     1 1s   -0.22194     1 2pz   0.44944     2 1s    0.51361     2 1s   -0.16569
                                    2 2pz  -0.46389
    4.1     0.00000     0.18033     1 2px   0.00002     1 2py   1.03291     2 2px  -0.00000     2 2py  -0.15147
    5.1     0.00000     0.18033     1 2px   0.05944     1 2py  -0.13932     2 2px  -0.40533     2 2py   0.95005
    6.1    -0.00000     0.18033     1 2px  -0.13932     1 2py  -0.05944     2 2px   0.95005     2 2py   0.40533
    7.1    -0.00000     0.18033     1 2px   1.03291     1 2py  -0.00002     2 2px  -0.15147     2 2py   0.00000
    8.1    -0.00012    -1.09434     1 1s    0.51361     1 1s   -0.16569     1 2pz   0.46389     2 1s   -0.47665     2 1s   -0.22194
                                    2 2pz  -0.44944
    9.1    -0.00130    -0.94141     1 1s    0.57696     1 1s   -0.81678     1 2pz  -0.88367     2 1s    0.41313     2 1s    0.84816
                                    2 2pz  -0.88329
   10.1    -0.61851    -0.03531     1 1s   -0.28043     1 1s    1.00337     1 2pz  -0.05676     2 1s   -0.00608     2 1s   -0.19118
                                    2 2pz  -0.17279

 NATURAL CHARGE ORBITALS
 =======================

 Occupation number threshold for pseudo-canonical orbitals: 1.9990 (occupied), 0.0010 (virtual)

 Number of pseudo-canonical occupied orbitals per symmetry:    2
 Number of active natural orbitals per symmetry:               2

   Orb     Occ        Energy       Coefficients

                                   1 1s      1 1s      1 2px     1 2py     1 2pz     2 1s      2 1s      2 2px     2 2py     2 2pz  


   1.1  2.00000    -2.340463     0.700496  0.039782  0.000000  0.000000  0.010216 -0.699945 -0.039765  0.000000 -0.000000  0.010216

   2.1  2.00000    -2.340407     0.699827  0.022177  0.000000 -0.000000 -0.000277  0.700378  0.022208  0.000000  0.000000  0.000269

   3.1  1.78578    -0.139396    -0.202590  0.574306  0.000000  0.000000  0.082047 -0.202590  0.574305 -0.000000 -0.000000 -0.082047

   4.1  0.21422     0.068779    -0.193992  0.844680  0.000000  0.000000 -0.162318  0.193992 -0.844680  0.000000  0.000000 -0.162319

   5.1  0.00000     0.126040     0.000000 -0.000000 -0.413228  0.466592  0.000000 -0.000000  0.000000 -0.413227  0.466592  0.000000

   6.1  0.00000     0.126040     0.000000 -0.000000  0.466592  0.413228  0.000000 -0.000000  0.000000  0.466592  0.413227  0.000000

   7.1  0.00000     0.151775     0.026132 -0.274098  0.000000  0.000000  0.645823  0.026132 -0.274098 -0.000000 -0.000000 -0.645822

   8.1  0.00000     0.234626     0.000000 -0.000000  0.735723  0.400113 -0.000000  0.000000 -0.000000 -0.735723 -0.400113  0.000000

   9.1  0.00000     0.234626     0.000000 -0.000000 -0.400113  0.735723  0.000000  0.000000 -0.000000  0.400113 -0.735723  0.000000

  10.1  0.00000     0.457586    -0.115842  1.177291 -0.000000 -0.000000  1.249427  0.115842 -1.177291 -0.000000 -0.000000  1.249428

 Natural orbitals saved to record    2100.3 (Orbital set 3)

 Orbital spaces for UNO-CAS (Min. occupation: 0.020  Max. occupation: 1.980):

 Closed:        2
 Active:        2


 **********************************************************************************************************************************
 DATASETS  * FILE   NREC   LENGTH (MB)   RECORD NAMES
              1      19       29.95       500      610      700      900      950      970     1000      129      960     1100   
                                          VAR    BASINP    GEOM    SYMINP    ZMAT    AOBASIS   BASIS     P2S    ABASIS      S 
                                         1400     1410     1200     1210     1080     1600     1650     1300     1700   
                                           T        V       H0       H01     AOSYM     SMH    MOLCAS    ERIS     OPER   

              2       4        2.75       700     1000      520     2100   
                                         GEOM     BASIS   MCVARS     RHF  

              3       6       17.27       500      610      700     1000     2200     2100   
                                          VAR    BASINP    GEOM     BASIS     UHF      UHF  

 PROGRAMS   *        TOTAL   UHF-SCF   UHF-SCF   RHF-SCF       INT      FILE
 CPU TIMES  *         0.52      0.05      0.13      0.08      0.13      0.00
 REAL TIME  *         0.71 SEC
 DISK USED  *        50.02 MB
 **********************************************************************************************************************************
 Molecular orbitals read from record     2100.3  Type=UHF/ALPHA (state 1.1)
 Occupation numbers read from record     2100.3  Type=UHF/ALPHA (state 1.1)
 Orbital energies read from record       2100.3  Type=UHF/ALPHA (state 1.1)
 Redundancy group numbers read from rec  2100.3  Type=UHF/BETA (state 1.1)
 Molecular orbitals read from record     2100.3  Type=UHF/BETA (state 1.1)
 Occupation numbers read from record     2100.3  Type=UHF/BETA (state 1.1)
 Orbital energies read from record       2100.3  Type=UHF/BETA (state 1.1)
 Redundancy group numbers read from rec  2100.3  Type=UHF/BETA (state 1.1)
 Molecular orbitals read from record     2100.3  Type=UHF/NATURAL (state 1.1)
 Occupation numbers read from record     2100.3  Type=UHF/NATURAL (state 1.1)
 Orbital energies read from record       2100.3  Type=UHF/NATURAL (state 1.1)
 Redundancy group numbers read from rec  2100.3  Type=UHF/BETA (state 1.1)

 UHF/STO-3G energy=    -14.641145359650

         UHF-SCF         UHF-SCF         RHF-SCF
    -14.64114536    -14.64114536    -14.63864283
 **********************************************************************************************************************************
 Molpro calculation terminated
