
 Primary working directories    : /scr/yuriaoto/job.022415/molpro.jNNsIsLRPg
 Secondary working directories  : /scr/yuriaoto/job.022415/molpro.jNNsIsLRPg
 Wavefunction directory         : /scr/yuriaoto/job.022415/
 Main file repository           : /scr/yuriaoto/job.022415/molpro.jNNsIsLRPg/

 id        : yuriaoto

 Nodes             nprocs
 t-rex.ufabc.int.br    1

 Using customized tuning parameters: mindgm=8; mindgv=16; mindgc=1; mindgr=1; noblas=0; minvec=7
 default implementation of scratch files=df  


 Variables initialized (933), CPU time= 0.00 sec
 ***,
 memory,40,m
 gprint,orbital,basis,civector
 gthresh,thrprint=0,printci=0.0
 file,3,wfu.dat,old
 
 {cisd,CC_NORM_MAX=10.0
 thresh,printci=0.0,ENERGY=1.0E-10,COEFF=1.0E-12
 print,ref=1
 core,0
 wf,6,1,0;
 }
 
 Commands  initialized (760), CPU time= 0.01 sec, 617 directives.
 Default parameters read. Elapsed time= 0.04 sec

 Checking input...
 Passed
1


                                         ***  PROGRAM SYSTEM MOLPRO  ***
                                       Copyright, TTI GmbH Stuttgart, 2015
                                    Version 2019.2 linked Abr  7 2019 15:10:35


 **********************************************************************************************************************************
 LABEL *                                                                                 
  64 bit serial version                                                                  DATE: 21-Oct-19          TIME: 10:48:26  
 **********************************************************************************************************************************

 SHA1:             3a8a58c585c929645742fb5a1b7541a4ad1da699
 **********************************************************************************************************************************


 THRESHOLDS:

 ZERO    =  1.00D-12  ONEINT  =  1.00D-12  TWOINT  =  1.00D-11  PREFAC  =  1.00D-14  XXXXXX  =  1.00D-09  EORDER  =  1.00D-04
 ENERGY  =  0.00D+00  ETEST   =  0.00D+00  EDENS   =  0.00D+00  THRDEDEF=  1.00D-06  GRADIENT=  1.00D-02  STEP    =  1.00D-03
 ORBITAL =  1.00D-05  CIVEC   =  1.00D-05  COEFF   =  1.00D-04  PRINTCI =  0.00D+00  PUNCHCI =  9.90D+01  OPTGRAD =  3.00D-04
 OPTENERG=  1.00D-06  OPTSTEP =  3.00D-04  THRGRAD =  1.00D-10  COMPRESS=  1.00D-11  VARMIN  =  1.00D-07  VARMAX  =  1.00D-03
 THRDOUB =  0.00D+00  THRDIV  =  1.00D-05  THRRED  =  1.00D-07  THRPSP  =  1.00D+00  THRDC   =  1.00D-10  THRCS   =  1.00D-10
 THRNRM  =  1.00D-08  THREQ   =  0.00D+00  THRDE   =  1.00D+00  THRREF  =  1.00D-05  SPARFAC =  1.00D+00  THRDLP  =  1.00D-07
 THRDIA  =  1.00D-10  THRDLS  =  1.00D-07  THRGPS  =  0.00D+00  THRKEX  =  0.00D+00  THRDIS  =  2.00D-01  THRVAR  =  1.00D-10
 THRLOC  =  1.00D-06  THRGAP  =  1.00D-06  THRLOCT = -1.00D+00  THRGAPT = -1.00D+00  THRORB  =  1.00D-06  THRMLTP =  0.00D+00
 THRCPQCI=  1.00D-10  KEXTA   =  0.00D+00  THRCOARS=  0.00D+00  SYMTOL  =  1.00D-06  GRADTOL =  1.00D-06  THROVL  =  1.00D-08
 THRORTH =  1.00D-08  GRID    =  1.00D-06  GRIDMAX =  1.00D-03  DTMAX   =  0.00D+00  THROCCDE=  1.00D-01  THROCCDE=  1.00D-01
 THRPRINT=  0.00D+00


 Variable memory set to   40000000 words,  buffer space 



 Permanent file  3  wfu.dat  assigned.  Implementation=df    Size= 14.10 MB


 PROGRAM * RESTART 


 Reading variables from file 3

 _FNUC           =      0.00000000
 _BASIS          =    CC-PVDZ
 _NELEC          =      6.00000000
 _PROGRAM        =    RHF-SCF
 _DMX            =     -0.00000000
 _DMY            =     -0.00000000
 _DMZ            =     -0.00000000
 _DMX_SCF        =     -0.00000000
 _DMY_SCF        =     -0.00000000
 _DMZ_SCF        =     -0.00000000
 _HOMO           =      3.10000000
 _EHOMO          =     -0.18089003
 _LUMO           =      4.10000000
 _ELUMO          =      0.00860175
 _ENERGY         =    -14.86923112
 _ENERGY_METHOD  =    RHF
 _ENERGY_BASIS   =    cc-pVDZ
 _ENUC           =      1.80000000
 _EPS1(1:18)     =     -2.44754692    -2.44716908    -0.18089003     0.00860175     0.03216991     0.03216991
                        0.04506451     0.06717723     0.06717723     0.08426832     0.14188695     0.16180289
                        0.16180289     0.17633377     0.21640604     0.21640604     0.25807888     0.31859242
 _IPROC_MPP      =      0.00000000
 _IPROC_MPPX     =      0.00000000
 _ORBITAL        =   2100.30000000
 _STATUS         =      1.00000000
 _LASTORB        =    RHF
 _OUTPUT         =    /scr/yuriaoto/job.022413/RHF.xml
 _PGROUP         =    C1  
 _TIME           =    10:48:02
 R               =      5.00000000

 Geometry written to block  1 of record 700


 **********************************************************************************************************************************
 DATASETS  * FILE   NREC   LENGTH (MB)   RECORD NAMES
              3       5       14.79       500      610      700     1000     2100   
                                          VAR    BASINP    GEOM     BASIS     RHF  

 PROGRAMS   *        TOTAL   RESTART
 CPU TIMES  *         0.13      0.02
 REAL TIME  *         0.15 SEC
 DISK USED  *        26.85 MB
 **********************************************************************************************************************************


 Recomputing integrals since basis changed


 Using spherical harmonics

 Library entry LI     S cc-pVDZ              selected for orbital group  1
 Library entry LI     P cc-pVDZ              selected for orbital group  1
 Library entry LI     D cc-pVDZ              selected for orbital group  1


 PROGRAM * SEWARD (Integral evaluation for generally contracted gaussian basis sets)     Author: Roland Lindh, 1990

 Geometry written to block  1 of record 700

 Orientation using atomic masses  
 Molecule type: Linear
 Rotational constants:      20.8009354     20.8009354      0.0000000 GHz  (calculated with average atomic masses)

 Point group  C1  



 ATOMIC COORDINATES

 NR  ATOM    CHARGE       X              Y              Z

   1  LI1     3.00    0.000000000    0.000000000   -2.500000000
   2  LI2     3.00    0.000000000    0.000000000    2.500000000

 Bond lengths in Bohr (Angstrom)

 1-2  5.000000000
     ( 2.645886055)


 BASIS DATA

   Nr Sym  Nuc  Type         Exponents   Contraction coefficients

    1.1 A     1  1s        1469.000000     0.000766   -0.000120    0.000000
    2.1 A                   220.500000     0.005892   -0.000923    0.000000
    3.1 A                    50.260000     0.029671   -0.004689    0.000000
                             14.240000     0.109180   -0.017682    0.000000
                              4.581000     0.282789   -0.048902    0.000000
                              1.580000     0.453123   -0.096009    0.000000
                              0.564000     0.274774   -0.136380    0.000000
                              0.073450     0.009751    0.575102    0.000000
                              0.028050    -0.003180    0.517661    1.000000
    4.1 A     1  2px          1.534000     0.022784
                              0.274900     0.139107
                              0.073620     0.500375
                              0.024030     0.508474
    5.1 A     1  2py          1.534000     0.022784
                              0.274900     0.139107
                              0.073620     0.500375
                              0.024030     0.508474
    6.1 A     1  2pz          1.534000     0.022784
                              0.274900     0.139107
                              0.073620     0.500375
                              0.024030     0.508474
    7.1 A     1  2px          1.534000     0.000000
                              0.274900     0.000000
                              0.073620     0.000000
                              0.024030     1.000000
    8.1 A     1  2py          1.534000     0.000000
                              0.274900     0.000000
                              0.073620     0.000000
                              0.024030     1.000000
    9.1 A     1  2pz          1.534000     0.000000
                              0.274900     0.000000
                              0.073620     0.000000
                              0.024030     1.000000
   10.1 A     1  3d0          0.114400     1.000000
   11.1 A     1  3d2-         0.114400     1.000000
   12.1 A     1  3d1+         0.114400     1.000000
   13.1 A     1  3d2+         0.114400     1.000000
   14.1 A     1  3d1-         0.114400     1.000000
   15.1 A     2  1s        1469.000000     0.000766   -0.000120    0.000000
   16.1 A                   220.500000     0.005892   -0.000923    0.000000
   17.1 A                    50.260000     0.029671   -0.004689    0.000000
                             14.240000     0.109180   -0.017682    0.000000
                              4.581000     0.282789   -0.048902    0.000000
                              1.580000     0.453123   -0.096009    0.000000
                              0.564000     0.274774   -0.136380    0.000000
                              0.073450     0.009751    0.575102    0.000000
                              0.028050    -0.003180    0.517661    1.000000
   18.1 A     2  2px          1.534000     0.022784
                              0.274900     0.139107
                              0.073620     0.500375
                              0.024030     0.508474
   19.1 A     2  2py          1.534000     0.022784
                              0.274900     0.139107
                              0.073620     0.500375
                              0.024030     0.508474
   20.1 A     2  2pz          1.534000     0.022784
                              0.274900     0.139107
                              0.073620     0.500375
                              0.024030     0.508474
   21.1 A     2  2px          1.534000     0.000000
                              0.274900     0.000000
                              0.073620     0.000000
                              0.024030     1.000000
   22.1 A     2  2py          1.534000     0.000000
                              0.274900     0.000000
                              0.073620     0.000000
                              0.024030     1.000000
   23.1 A     2  2pz          1.534000     0.000000
                              0.274900     0.000000
                              0.073620     0.000000
                              0.024030     1.000000
   24.1 A     2  3d0          0.114400     1.000000
   25.1 A     2  3d2-         0.114400     1.000000
   26.1 A     2  3d1+         0.114400     1.000000
   27.1 A     2  3d2+         0.114400     1.000000
   28.1 A     2  3d1-         0.114400     1.000000

 NUCLEAR CHARGE:                    6
 NUMBER OF PRIMITIVE AOS:          54
 NUMBER OF SYMMETRY AOS:           52
 NUMBER OF CONTRACTIONS:           28   (   28A   )
 NUMBER OF CORE ORBITALS:           2   (    2A   )
 NUMBER OF VALENCE ORBITALS:        8   (    8A   )


 NUCLEAR REPULSION ENERGY    1.80000000

 EXTRA SYMMETRY OF AOS IN SYMMETRY 1:   1 1 1 2 3 1 2 3 1 1   4 2 5 3 1 1 1 2 3 1   2 3 1 1 4 2 5 3

 Eigenvalues of metric

         1 0.256E-02 0.901E-02 0.313E-01 0.586E-01 0.586E-01 0.995E-01 0.101E+00 0.135E+00


 Contracted 2-electron integrals neglected if value below      1.0D-11
 AO integral compression algorithm  1   Integral accuracy      1.0D-11

     0.262 MB (compressed) written to integral file ( 36.0%)


 NUMBER OF SORTED TWO-ELECTRON INTEGRALS:      82621.     BUFFER LENGTH:  32768
 NUMBER OF SEGMENTS:   1  SEGMENT LENGTH:      82621      RECORD LENGTH: 524288

 Memory used in sort:       0.64 MW

 SORT1 READ      119167. AND WROTE       19125. INTEGRALS IN      1 RECORDS. CPU TIME:     0.00 SEC, REAL TIME:     0.00 SEC
 SORT2 READ       19125. AND WROTE       82621. INTEGRALS IN      1 RECORDS. CPU TIME:     0.03 SEC, REAL TIME:     0.03 SEC

 FILE SIZES:   FILE 1:    30.2 MBYTE,  FILE 4:     4.2 MBYTE,   TOTAL:     34.5 MBYTE

 OPERATOR DM      FOR CENTER  0  COORDINATES:    0.000000    0.000000    0.000000


 **********************************************************************************************************************************
 DATASETS  * FILE   NREC   LENGTH (MB)   RECORD NAMES
              1      19       30.10       500      700      610      900      950      970     1000      129      960     1100   
                                          VAR     GEOM    BASINP   SYMINP    ZMAT    AOBASIS   BASIS     P2S    ABASIS      S 
                                         1400     1410     1200     1210     1080     1600     1650     1300     1700   
                                           T        V       H0       H01     AOSYM     SMH    MOLCAS    ERIS     OPER   

              3       5       14.79       500      610      700     1000     2100   
                                          VAR    BASINP    GEOM     BASIS     RHF  

 PROGRAMS   *        TOTAL       INT   RESTART
 CPU TIMES  *         0.31      0.18      0.02
 REAL TIME  *         0.46 SEC
 DISK USED  *        49.48 MB
 **********************************************************************************************************************************


 PROGRAM * CISD (Closed-shell CI(SD))     Authors: C. Hampel, H.-J. Werner, 1991, M. Deegan, P.J. Knowles, 1992


 Input parameters for THRESH:

 ENERGY   =    1.00D-10
 COEFF    =    1.00D-12
 PRINTCI  =    0.000000
 THRPRINT =    0.000000

 Convergence thresholds:  THRVAR = 1.00D-24  THRDEN = 1.00D-10

 Number of closed-shell orbitals:   3 (   3 )
 Number of external orbitals:      25 (  25 )

 Molecular orbitals read from record     2100.3  Type=RHF/CANONICAL (state 1.1)

 Number of N-1 electron functions:               3
 Number of N-2 electron functions:               6
 Number of singly external CSFs:                75
 Number of doubly external CSFs:              2850
 Total number of CSFs:                        2926

 Length of J-op  integral file:               0.00 MB
 Length of K-op  integral file:               0.09 MB

 Integral transformation finished. Total CPU:   0.00 sec, npass=  1  Memory used:   0.08 MW

 Reference energy:                    -14.86923112

 MP2 singlet pair energy:              -0.01997317
 MP2 triplet pair energy:              -0.00016887
 MP2 correlation energy:               -0.02014205
 MP2 total energy:                    -14.88937317

 SCS-MP2 correlation energy:           -0.02407288   (PS=  1.200000  PT=  0.333333)
 SCS-MP2 total energy:                -14.89330400

 ITER.      SQ.NORM     CORR.ENERGY   TOTAL ENERGY   ENERGY CHANGE        DEN1      VAR(S)    VAR(P)  DIIS     TIME  TIME/IT
   1      1.05140246    -0.02821054   -14.89744166    -0.00806849    -0.00441309  0.64D-04  0.28D-02  1  1     0.02     0.01
   2      1.08458944    -0.02963257   -14.89886370    -0.00142204    -0.00534702  0.38D-04  0.27D-03  2  2     0.02     0.01
   3      1.10063558    -0.03167805   -14.90090917    -0.00204547    -0.00184867  0.34D-05  0.55D-04  3  3     0.03     0.01
   4      1.10395723    -0.03195580   -14.90118692    -0.00027775    -0.00016872  0.11D-05  0.12D-04  4  4     0.04     0.01
   5      1.10504073    -0.03199514   -14.90122626    -0.00003934    -0.00002656  0.26D-06  0.13D-05  5  5     0.04     0.01
   6      1.10563696    -0.03200515   -14.90123627    -0.00001001    -0.00005741  0.15D-06  0.28D-06  6  6     0.05     0.01
   7      1.10570762    -0.03200643   -14.90123755    -0.00000128    -0.00000297  0.75D-07  0.54D-07  6  1     0.05     0.01
   8      1.10573138    -0.03200672   -14.90123784    -0.00000029    -0.00000043  0.22D-07  0.14D-07  6  2     0.06     0.01
   9      1.10571805    -0.03200682   -14.90123794    -0.00000010     0.00000214  0.45D-08  0.21D-08  6  3     0.06     0.01
  10      1.10572808    -0.03200685   -14.90123797    -0.00000003    -0.00000146  0.61D-09  0.30D-09  6  4     0.07     0.01
  11      1.10573289    -0.03200686   -14.90123798    -0.00000001    -0.00000067  0.10D-09  0.73D-10  6  5     0.07     0.01
  12      1.10573482    -0.03200686   -14.90123798    -0.00000000    -0.00000026  0.11D-10  0.22D-10  6  6     0.08     0.01
  13      1.10573391    -0.03200686   -14.90123798    -0.00000000     0.00000008  0.53D-12  0.64D-11  6  1     0.08     0.01
  14      1.10573237    -0.03200686   -14.90123798    -0.00000000     0.00000014  0.12D-12  0.13D-11  6  2     0.09     0.01
  15      1.10573163    -0.03200686   -14.90123798    -0.00000000     0.00000006  0.17D-12  0.31D-12  6  3     0.09     0.01
  16      1.10573135    -0.03200686   -14.90123798    -0.00000000     0.00000002  0.81D-13  0.92D-13  6  4     0.09     0.01
  17      1.10573127    -0.03200686   -14.90123798    -0.00000000     0.00000000  0.59D-14  0.18D-13  6  6     0.10     0.01
  18      1.10573128    -0.03200686   -14.90123798    -0.00000000    -0.00000000  0.31D-15  0.24D-14  6  5     0.10     0.01
  19      1.10573130    -0.03200686   -14.90123798    -0.00000000    -0.00000000  0.15D-16  0.35D-15  6  1     0.11     0.01
  20      1.10573131    -0.03200686   -14.90123798    -0.00000000    -0.00000000  0.14D-16  0.39D-16  6  2     0.11     0.01
  21      1.10573131    -0.03200686   -14.90123798     0.00000000    -0.00000000  0.29D-17  0.76D-17  6  3     0.11     0.01
  22      1.10573131    -0.03200686   -14.90123798     0.00000000    -0.00000000  0.45D-18  0.24D-17  6  4     0.12     0.01
  23      1.10573131    -0.03200686   -14.90123798     0.00000000    -0.00000000  0.13D-18  0.59D-18  6  5     0.12     0.01
  24      1.10573131    -0.03200686   -14.90123798     0.00000000    -0.00000000  0.27D-20  0.53D-19  6  6     0.13     0.01
  25      1.10573131    -0.03200686   -14.90123798     0.00000000    -0.00000000  0.99D-21  0.13D-19  6  1     0.13     0.01
  26      1.10573131    -0.03200686   -14.90123798     0.00000000     0.00000000  0.49D-21  0.27D-20  6  2     0.13     0.01
  27      1.10573131    -0.03200686   -14.90123798     0.00000000     0.00000000  0.12D-21  0.68D-21  6  3     0.14     0.01
  28      1.10573131    -0.03200686   -14.90123798     0.00000000     0.00000000  0.24D-23  0.78D-22  6  1     0.14     0.01
  29      1.10573131    -0.03200686   -14.90123798     0.00000000     0.00000000  0.20D-23  0.16D-22  6  5     0.14     0.01
  30      1.10573131    -0.03200686   -14.90123798     0.00000000     0.00000000  0.84D-24  0.34D-23  6  4     0.15     0.01
  31      1.10573131    -0.03200686   -14.90123798     0.00000000     0.00000000  0.57D-24  0.72D-24  6  6     0.15     0.01
  32      1.10573131    -0.03200686   -14.90123798     0.00000000     0.00000000  0.29D-24  0.18D-24  6  2     0.15     0.01


 ! DIPOLE MOMENTS:                     -0.00000000    -0.00000000     0.00000000



 Norm of t1 vector:      0.02667499      S-energy:    -0.00002060      T1 diagnostic:  0.00770041

 Singles amplitudes (print threshold =  0.000E+00):

         I         SYM. A    A   T(IA)

         1         1         1     -0.00000000
         1         1         2      0.00000000
         1         1         3      0.00000000
         1         1         4      0.00001410
         1         1         5      0.00000000
         1         1         6     -0.00000000
         1         1         7      0.00000000
         1         1         8     -0.00000966
         1         1         9      0.00000000
         1         1        10      0.00000000
         1         1        11     -0.00027301
         1         1        12      0.00000000
         1         1        13     -0.00000000
         1         1        14     -0.00000000
         1         1        15     -0.00000000
         1         1        16     -0.00000000
         1         1        17     -0.00000000
         1         1        18      0.00000000
         1         1        19     -0.00000000
         1         1        20     -0.00000000
         1         1        21      0.00000000
         1         1        22      0.00002425
         1         1        23      0.00000000
         1         1        24      0.00000000
         1         1        25     -0.00000000
         2         1         1     -0.00034350
         2         1         2      0.00000000
         2         1         3     -0.00000000
         2         1         4      0.00000000
         2         1         5     -0.00000000
         2         1         6      0.00000000
         2         1         7      0.00037776
         2         1         8     -0.00000000
         2         1         9     -0.00000000
         2         1        10     -0.00000000
         2         1        11      0.00000000
         2         1        12      0.00000000
         2         1        13      0.00000000
         2         1        14     -0.00013803
         2         1        15     -0.00031406
         2         1        16     -0.00000000
         2         1        17      0.00000000
         2         1        18     -0.00000000
         2         1        19      0.00000000
         2         1        20     -0.00000000
         2         1        21     -0.00000000
         2         1        22      0.00000000
         2         1        23     -0.00000000
         2         1        24      0.00000000
         2         1        25     -0.00006297
         3         1         1     -0.00000000
         3         1         2     -0.00000000
         3         1         3     -0.00000000
         3         1         4      0.01391379
         3         1         5     -0.00000000
         3         1         6      0.00000000
         3         1         7      0.00000000
         3         1         8     -0.01010932
         3         1         9     -0.00000000
         3         1        10     -0.00000000
         3         1        11     -0.00722627
         3         1        12      0.00000000
         3         1        13      0.00000000
         3         1        14     -0.00000000
         3         1        15     -0.00000000
         3         1        16     -0.00000000
         3         1        17      0.00000000
         3         1        18     -0.00000000
         3         1        19      0.00000000
         3         1        20      0.00000000
         3         1        21     -0.00000000
         3         1        22     -0.00270350
         3         1        23     -0.00000000
         3         1        24     -0.00000000
         3         1        25      0.00000000

 Doubles amplitudes (print threshold =  0.000E+00):

         I         J         SYM. A    SYM. B    A         B      T(IJ, AB)

         1         1         1         1         1         1     -0.00029473
         1         1         1         1         1         2      0.00000000
         1         1         1         1         1         3     -0.00000000
         1         1         1         1         1         4     -0.00000000
         1         1         1         1         1         5      0.00000000
         1         1         1         1         1         6     -0.00000000
         1         1         1         1         1         7      0.00048449
         1         1         1         1         1         8      0.00000000
         1         1         1         1         1         9     -0.00000000
         1         1         1         1         1        10      0.00000000
         1         1         1         1         1        11      0.00000000
         1         1         1         1         1        12      0.00000000
         1         1         1         1         1        13      0.00000000
         1         1         1         1         1        14     -0.00021411
         1         1         1         1         1        15     -0.00035267
         1         1         1         1         1        16     -0.00000000
         1         1         1         1         1        17     -0.00000000
         1         1         1         1         1        18      0.00000000
         1         1         1         1         1        19      0.00000000
         1         1         1         1         1        20      0.00000000
         1         1         1         1         1        21      0.00000000
         1         1         1         1         1        22     -0.00000000
         1         1         1         1         1        23     -0.00000000
         1         1         1         1         1        24      0.00000000
         1         1         1         1         1        25     -0.00047387
         1         1         1         1         2         1      0.00000000
         1         1         1         1         2         2      0.00011475
         1         1         1         1         2         3     -0.00000000
         1         1         1         1         2         4      0.00000000
         1         1         1         1         2         5      0.00000000
         1         1         1         1         2         6      0.00000000
         1         1         1         1         2         7      0.00000000
         1         1         1         1         2         8      0.00000000
         1         1         1         1         2         9     -0.00000999
         1         1         1         1         2        10     -0.00009041
         1         1         1         1         2        11     -0.00000000
         1         1         1         1         2        12     -0.00000000
         1         1         1         1         2        13      0.00000000
         1         1         1         1         2        14     -0.00000000
         1         1         1         1         2        15     -0.00000000
         1         1         1         1         2        16     -0.00000000
         1         1         1         1         2        17     -0.00000000
         1         1         1         1         2        18      0.00006889
         1         1         1         1         2        19      0.00004038
         1         1         1         1         2        20      0.00000000
         1         1         1         1         2        21      0.00000000
         1         1         1         1         2        22     -0.00000000
         1         1         1         1         2        23      0.00000000
         1         1         1         1         2        24     -0.00000000
         1         1         1         1         2        25      0.00000000
         1         1         1         1         3         1     -0.00000000
         1         1         1         1         3         2      0.00000000
         1         1         1         1         3         3      0.00011475
         1         1         1         1         3         4     -0.00000000
         1         1         1         1         3         5      0.00000000
         1         1         1         1         3         6     -0.00000000
         1         1         1         1         3         7     -0.00000000
         1         1         1         1         3         8     -0.00000000
         1         1         1         1         3         9     -0.00009041
         1         1         1         1         3        10      0.00000999
         1         1         1         1         3        11      0.00000000
         1         1         1         1         3        12      0.00000000
         1         1         1         1         3        13      0.00000000
         1         1         1         1         3        14      0.00000000
         1         1         1         1         3        15     -0.00000000
         1         1         1         1         3        16     -0.00000000
         1         1         1         1         3        17      0.00000000
         1         1         1         1         3        18     -0.00004038
         1         1         1         1         3        19      0.00006889
         1         1         1         1         3        20     -0.00000000
         1         1         1         1         3        21     -0.00000000
         1         1         1         1         3        22     -0.00000000
         1         1         1         1         3        23      0.00000000
         1         1         1         1         3        24      0.00000000
         1         1         1         1         3        25      0.00000000
         1         1         1         1         4         1     -0.00000000
         1         1         1         1         4         2      0.00000000
         1         1         1         1         4         3     -0.00000000
         1         1         1         1         4         4     -0.00002545
         1         1         1         1         4         5      0.00000000
         1         1         1         1         4         6      0.00000000
         1         1         1         1         4         7      0.00000000
         1         1         1         1         4         8      0.00013623
         1         1         1         1         4         9     -0.00000000
         1         1         1         1         4        10      0.00000000
         1         1         1         1         4        11     -0.00008142
         1         1         1         1         4        12     -0.00000000
         1         1         1         1         4        13      0.00000000
         1         1         1         1         4        14      0.00000000
         1         1         1         1         4        15     -0.00000000
         1         1         1         1         4        16     -0.00000000
         1         1         1         1         4        17      0.00000000
         1         1         1         1         4        18      0.00000000
         1         1         1         1         4        19     -0.00000000
         1         1         1         1         4        20     -0.00000000
         1         1         1         1         4        21     -0.00000000
         1         1         1         1         4        22     -0.00011038
         1         1         1         1         4        23     -0.00000000
         1         1         1         1         4        24     -0.00000000
         1         1         1         1         4        25      0.00000000
         1         1         1         1         5         1      0.00000000
         1         1         1         1         5         2      0.00000000
         1         1         1         1         5         3      0.00000000
         1         1         1         1         5         4      0.00000000
         1         1         1         1         5         5     -0.00000757
         1         1         1         1         5         6     -0.00000000
         1         1         1         1         5         7     -0.00000000
         1         1         1         1         5         8      0.00000000
         1         1         1         1         5         9      0.00000000
         1         1         1         1         5        10      0.00000000
         1         1         1         1         5        11      0.00000000
         1         1         1         1         5        12      0.00006759
         1         1         1         1         5        13     -0.00006006
         1         1         1         1         5        14     -0.00000000
         1         1         1         1         5        15     -0.00000000
         1         1         1         1         5        16      0.00000000
         1         1         1         1         5        17     -0.00000000
         1         1         1         1         5        18     -0.00000000
         1         1         1         1         5        19     -0.00000000
         1         1         1         1         5        20      0.00000000
         1         1         1         1         5        21     -0.00000000
         1         1         1         1         5        22     -0.00000000
         1         1         1         1         5        23     -0.00005477
         1         1         1         1         5        24      0.00000918
         1         1         1         1         5        25     -0.00000000
         1         1         1         1         6         1     -0.00000000
         1         1         1         1         6         2      0.00000000
         1         1         1         1         6         3     -0.00000000
         1         1         1         1         6         4      0.00000000
         1         1         1         1         6         5     -0.00000000
         1         1         1         1         6         6     -0.00000757
         1         1         1         1         6         7      0.00000000
         1         1         1         1         6         8     -0.00000000
         1         1         1         1         6         9     -0.00000000
         1         1         1         1         6        10      0.00000000
         1         1         1         1         6        11     -0.00000000
         1         1         1         1         6        12      0.00006006
         1         1         1         1         6        13      0.00006759
         1         1         1         1         6        14      0.00000000
         1         1         1         1         6        15     -0.00000000
         1         1         1         1         6        16     -0.00000000
         1         1         1         1         6        17     -0.00000000
         1         1         1         1         6        18     -0.00000000
         1         1         1         1         6        19      0.00000000
         1         1         1         1         6        20     -0.00000000
         1         1         1         1         6        21      0.00000000
         1         1         1         1         6        22      0.00000000
         1         1         1         1         6        23      0.00000918
         1         1         1         1         6        24      0.00005477
         1         1         1         1         6        25      0.00000000
         1         1         1         1         7         1      0.00048449
         1         1         1         1         7         2      0.00000000
         1         1         1         1         7         3     -0.00000000
         1         1         1         1         7         4      0.00000000
         1         1         1         1         7         5     -0.00000000
         1         1         1         1         7         6      0.00000000
         1         1         1         1         7         7     -0.00073227
         1         1         1         1         7         8     -0.00000000
         1         1         1         1         7         9     -0.00000000
         1         1         1         1         7        10      0.00000000
         1         1         1         1         7        11     -0.00000000
         1         1         1         1         7        12     -0.00000000
         1         1         1         1         7        13     -0.00000000
         1         1         1         1         7        14      0.00021873
         1         1         1         1         7        15      0.00053630
         1         1         1         1         7        16      0.00000000
         1         1         1         1         7        17      0.00000000
         1         1         1         1         7        18      0.00000000
         1         1         1         1         7        19     -0.00000000
         1         1         1         1         7        20     -0.00000000
         1         1         1         1         7        21     -0.00000000
         1         1         1         1         7        22      0.00000000
         1         1         1         1         7        23      0.00000000
         1         1         1         1         7        24      0.00000000
         1         1         1         1         7        25      0.00053633
         1         1         1         1         8         1      0.00000000
         1         1         1         1         8         2      0.00000000
         1         1         1         1         8         3     -0.00000000
         1         1         1         1         8         4      0.00013623
         1         1         1         1         8         5      0.00000000
         1         1         1         1         8         6     -0.00000000
         1         1         1         1         8         7     -0.00000000
         1         1         1         1         8         8     -0.00038850
         1         1         1         1         8         9     -0.00000000
         1         1         1         1         8        10      0.00000000
         1         1         1         1         8        11      0.00024695
         1         1         1         1         8        12      0.00000000
         1         1         1         1         8        13     -0.00000000
         1         1         1         1         8        14     -0.00000000
         1         1         1         1         8        15      0.00000000
         1         1         1         1         8        16      0.00000000
         1         1         1         1         8        17      0.00000000
         1         1         1         1         8        18      0.00000000
         1         1         1         1         8        19     -0.00000000
         1         1         1         1         8        20      0.00000000
         1         1         1         1         8        21      0.00000000
         1         1         1         1         8        22      0.00022863
         1         1         1         1         8        23     -0.00000000
         1         1         1         1         8        24      0.00000000
         1         1         1         1         8        25     -0.00000000
         1         1         1         1         9         1     -0.00000000
         1         1         1         1         9         2     -0.00000999
         1         1         1         1         9         3     -0.00009041
         1         1         1         1         9         4     -0.00000000
         1         1         1         1         9         5      0.00000000
         1         1         1         1         9         6     -0.00000000
         1         1         1         1         9         7     -0.00000000
         1         1         1         1         9         8     -0.00000000
         1         1         1         1         9         9     -0.00061204
         1         1         1         1         9        10      0.00000000
         1         1         1         1         9        11      0.00000000
         1         1         1         1         9        12      0.00000000
         1         1         1         1         9        13      0.00000000
         1         1         1         1         9        14     -0.00000000
         1         1         1         1         9        15     -0.00000000
         1         1         1         1         9        16     -0.00000000
         1         1         1         1         9        17      0.00000000
         1         1         1         1         9        18     -0.00006321
         1         1         1         1         9        19      0.00014150
         1         1         1         1         9        20     -0.00000000
         1         1         1         1         9        21      0.00000000
         1         1         1         1         9        22     -0.00000000
         1         1         1         1         9        23      0.00000000
         1         1         1         1         9        24      0.00000000
         1         1         1         1         9        25      0.00000000
         1         1         1         1        10         1      0.00000000
         1         1         1         1        10         2     -0.00009041
         1         1         1         1        10         3      0.00000999
         1         1         1         1        10         4      0.00000000
         1         1         1         1        10         5      0.00000000
         1         1         1         1        10         6      0.00000000
         1         1         1         1        10         7      0.00000000
         1         1         1         1        10         8      0.00000000
         1         1         1         1        10         9      0.00000000
         1         1         1         1        10        10     -0.00061204
         1         1         1         1        10        11      0.00000000
         1         1         1         1        10        12     -0.00000000
         1         1         1         1        10        13      0.00000000
         1         1         1         1        10        14     -0.00000000
         1         1         1         1        10        15     -0.00000000
         1         1         1         1        10        16     -0.00000000
         1         1         1         1        10        17     -0.00000000
         1         1         1         1        10        18      0.00014150
         1         1         1         1        10        19      0.00006321
         1         1         1         1        10        20      0.00000000
         1         1         1         1        10        21      0.00000000
         1         1         1         1        10        22     -0.00000000
         1         1         1         1        10        23      0.00000000
         1         1         1         1        10        24     -0.00000000
         1         1         1         1        10        25      0.00000000
         1         1         1         1        11         1      0.00000000
         1         1         1         1        11         2     -0.00000000
         1         1         1         1        11         3      0.00000000
         1         1         1         1        11         4     -0.00008142
         1         1         1         1        11         5      0.00000000
         1         1         1         1        11         6     -0.00000000
         1         1         1         1        11         7     -0.00000000
         1         1         1         1        11         8      0.00024695
         1         1         1         1        11         9      0.00000000
         1         1         1         1        11        10      0.00000000
         1         1         1         1        11        11     -0.00069843
         1         1         1         1        11        12     -0.00000000
         1         1         1         1        11        13     -0.00000000
         1         1         1         1        11        14      0.00000000
         1         1         1         1        11        15      0.00000000
         1         1         1         1        11        16      0.00000000
         1         1         1         1        11        17      0.00000000
         1         1         1         1        11        18      0.00000000
         1         1         1         1        11        19     -0.00000000
         1         1         1         1        11        20     -0.00000000
         1         1         1         1        11        21      0.00000000
         1         1         1         1        11        22      0.00008960
         1         1         1         1        11        23      0.00000000
         1         1         1         1        11        24      0.00000000
         1         1         1         1        11        25      0.00000000
         1         1         1         1        12         1      0.00000000
         1         1         1         1        12         2     -0.00000000
         1         1         1         1        12         3      0.00000000
         1         1         1         1        12         4     -0.00000000
         1         1         1         1        12         5      0.00006759
         1         1         1         1        12         6      0.00006006
         1         1         1         1        12         7     -0.00000000
         1         1         1         1        12         8      0.00000000
         1         1         1         1        12         9      0.00000000
         1         1         1         1        12        10     -0.00000000
         1         1         1         1        12        11     -0.00000000
         1         1         1         1        12        12     -0.00077954
         1         1         1         1        12        13     -0.00000000
         1         1         1         1        12        14      0.00000000
         1         1         1         1        12        15     -0.00000000
         1         1         1         1        12        16      0.00000000
         1         1         1         1        12        17      0.00000000
         1         1         1         1        12        18      0.00000000
         1         1         1         1        12        19     -0.00000000
         1         1         1         1        12        20      0.00000000
         1         1         1         1        12        21      0.00000000
         1         1         1         1        12        22      0.00000000
         1         1         1         1        12        23      0.00030714
         1         1         1         1        12        24     -0.00038127
         1         1         1         1        12        25     -0.00000000
         1         1         1         1        13         1      0.00000000
         1         1         1         1        13         2      0.00000000
         1         1         1         1        13         3      0.00000000
         1         1         1         1        13         4      0.00000000
         1         1         1         1        13         5     -0.00006006
         1         1         1         1        13         6      0.00006759
         1         1         1         1        13         7     -0.00000000
         1         1         1         1        13         8     -0.00000000
         1         1         1         1        13         9      0.00000000
         1         1         1         1        13        10      0.00000000
         1         1         1         1        13        11     -0.00000000
         1         1         1         1        13        12     -0.00000000
         1         1         1         1        13        13     -0.00077954
         1         1         1         1        13        14      0.00000000
         1         1         1         1        13        15      0.00000000
         1         1         1         1        13        16      0.00000000
         1         1         1         1        13        17     -0.00000000
         1         1         1         1        13        18     -0.00000000
         1         1         1         1        13        19     -0.00000000
         1         1         1         1        13        20      0.00000000
         1         1         1         1        13        21     -0.00000000
         1         1         1         1        13        22      0.00000000
         1         1         1         1        13        23     -0.00038127
         1         1         1         1        13        24     -0.00030714
         1         1         1         1        13        25      0.00000000
         1         1         1         1        14         1     -0.00021411
         1         1         1         1        14         2     -0.00000000
         1         1         1         1        14         3      0.00000000
         1         1         1         1        14         4      0.00000000
         1         1         1         1        14         5     -0.00000000
         1         1         1         1        14         6      0.00000000
         1         1         1         1        14         7      0.00021873
         1         1         1         1        14         8     -0.00000000
         1         1         1         1        14         9     -0.00000000
         1         1         1         1        14        10     -0.00000000
         1         1         1         1        14        11      0.00000000
         1         1         1         1        14        12      0.00000000
         1         1         1         1        14        13      0.00000000
         1         1         1         1        14        14     -0.00064328
         1         1         1         1        14        15     -0.00003552
         1         1         1         1        14        16     -0.00000000
         1         1         1         1        14        17      0.00000000
         1         1         1         1        14        18      0.00000000
         1         1         1         1        14        19     -0.00000000
         1         1         1         1        14        20      0.00000000
         1         1         1         1        14        21     -0.00000000
         1         1         1         1        14        22      0.00000000
         1         1         1         1        14        23      0.00000000
         1         1         1         1        14        24      0.00000000
         1         1         1         1        14        25     -0.00116975
         1         1         1         1        15         1     -0.00035267
         1         1         1         1        15         2     -0.00000000
         1         1         1         1        15         3     -0.00000000
         1         1         1         1        15         4     -0.00000000
         1         1         1         1        15         5     -0.00000000
         1         1         1         1        15         6     -0.00000000
         1         1         1         1        15         7      0.00053630
         1         1         1         1        15         8      0.00000000
         1         1         1         1        15         9     -0.00000000
         1         1         1         1        15        10     -0.00000000
         1         1         1         1        15        11      0.00000000
         1         1         1         1        15        12     -0.00000000
         1         1         1         1        15        13      0.00000000
         1         1         1         1        15        14     -0.00003552
         1         1         1         1        15        15     -0.00045748
         1         1         1         1        15        16      0.00000000
         1         1         1         1        15        17      0.00000000
         1         1         1         1        15        18     -0.00000000
         1         1         1         1        15        19      0.00000000
         1         1         1         1        15        20      0.00000000
         1         1         1         1        15        21     -0.00000000
         1         1         1         1        15        22     -0.00000000
         1         1         1         1        15        23     -0.00000000
         1         1         1         1        15        24     -0.00000000
         1         1         1         1        15        25     -0.00003147
         1         1         1         1        16         1     -0.00000000
         1         1         1         1        16         2     -0.00000000
         1         1         1         1        16         3     -0.00000000
         1         1         1         1        16         4     -0.00000000
         1         1         1         1        16         5      0.00000000
         1         1         1         1        16         6     -0.00000000
         1         1         1         1        16         7      0.00000000
         1         1         1         1        16         8      0.00000000
         1         1         1         1        16         9     -0.00000000
         1         1         1         1        16        10     -0.00000000
         1         1         1         1        16        11      0.00000000
         1         1         1         1        16        12      0.00000000
         1         1         1         1        16        13      0.00000000
         1         1         1         1        16        14     -0.00000000
         1         1         1         1        16        15      0.00000000
         1         1         1         1        16        16     -0.00000154
         1         1         1         1        16        17     -0.00000000
         1         1         1         1        16        18      0.00000000
         1         1         1         1        16        19     -0.00000000
         1         1         1         1        16        20     -0.00000000
         1         1         1         1        16        21     -0.00000000
         1         1         1         1        16        22     -0.00000000
         1         1         1         1        16        23      0.00000000
         1         1         1         1        16        24      0.00000000
         1         1         1         1        16        25     -0.00000000
         1         1         1         1        17         1     -0.00000000
         1         1         1         1        17         2     -0.00000000
         1         1         1         1        17         3      0.00000000
         1         1         1         1        17         4      0.00000000
         1         1         1         1        17         5     -0.00000000
         1         1         1         1        17         6     -0.00000000
         1         1         1         1        17         7      0.00000000
         1         1         1         1        17         8      0.00000000
         1         1         1         1        17         9      0.00000000
         1         1         1         1        17        10     -0.00000000
         1         1         1         1        17        11      0.00000000
         1         1         1         1        17        12      0.00000000
         1         1         1         1        17        13     -0.00000000
         1         1         1         1        17        14      0.00000000
         1         1         1         1        17        15      0.00000000
         1         1         1         1        17        16     -0.00000000
         1         1         1         1        17        17     -0.00000154
         1         1         1         1        17        18      0.00000000
         1         1         1         1        17        19     -0.00000000
         1         1         1         1        17        20      0.00000000
         1         1         1         1        17        21     -0.00000000
         1         1         1         1        17        22      0.00000000
         1         1         1         1        17        23     -0.00000000
         1         1         1         1        17        24     -0.00000000
         1         1         1         1        17        25     -0.00000000
         1         1         1         1        18         1      0.00000000
         1         1         1         1        18         2      0.00006889
         1         1         1         1        18         3     -0.00004038
         1         1         1         1        18         4      0.00000000
         1         1         1         1        18         5     -0.00000000
         1         1         1         1        18         6     -0.00000000
         1         1         1         1        18         7      0.00000000
         1         1         1         1        18         8      0.00000000
         1         1         1         1        18         9     -0.00006321
         1         1         1         1        18        10      0.00014150
         1         1         1         1        18        11      0.00000000
         1         1         1         1        18        12      0.00000000
         1         1         1         1        18        13     -0.00000000
         1         1         1         1        18        14      0.00000000
         1         1         1         1        18        15     -0.00000000
         1         1         1         1        18        16      0.00000000
         1         1         1         1        18        17      0.00000000
         1         1         1         1        18        18     -0.00002426
         1         1         1         1        18        19      0.00000000
         1         1         1         1        18        20      0.00000000
         1         1         1         1        18        21      0.00000000
         1         1         1         1        18        22      0.00000000
         1         1         1         1        18        23     -0.00000000
         1         1         1         1        18        24      0.00000000
         1         1         1         1        18        25      0.00000000
         1         1         1         1        19         1      0.00000000
         1         1         1         1        19         2      0.00004038
         1         1         1         1        19         3      0.00006889
         1         1         1         1        19         4     -0.00000000
         1         1         1         1        19         5     -0.00000000
         1         1         1         1        19         6      0.00000000
         1         1         1         1        19         7     -0.00000000
         1         1         1         1        19         8     -0.00000000
         1         1         1         1        19         9      0.00014150
         1         1         1         1        19        10      0.00006321
         1         1         1         1        19        11     -0.00000000
         1         1         1         1        19        12     -0.00000000
         1         1         1         1        19        13     -0.00000000
         1         1         1         1        19        14     -0.00000000
         1         1         1         1        19        15      0.00000000
         1         1         1         1        19        16     -0.00000000
         1         1         1         1        19        17     -0.00000000
         1         1         1         1        19        18      0.00000000
         1         1         1         1        19        19     -0.00002426
         1         1         1         1        19        20     -0.00000000
         1         1         1         1        19        21      0.00000000
         1         1         1         1        19        22      0.00000000
         1         1         1         1        19        23     -0.00000000
         1         1         1         1        19        24     -0.00000000
         1         1         1         1        19        25     -0.00000000
         1         1         1         1        20         1      0.00000000
         1         1         1         1        20         2      0.00000000
         1         1         1         1        20         3     -0.00000000
         1         1         1         1        20         4     -0.00000000
         1         1         1         1        20         5      0.00000000
         1         1         1         1        20         6     -0.00000000
         1         1         1         1        20         7     -0.00000000
         1         1         1         1        20         8      0.00000000
         1         1         1         1        20         9     -0.00000000
         1         1         1         1        20        10      0.00000000
         1         1         1         1        20        11     -0.00000000
         1         1         1         1        20        12      0.00000000
         1         1         1         1        20        13      0.00000000
         1         1         1         1        20        14      0.00000000
         1         1         1         1        20        15      0.00000000
         1         1         1         1        20        16     -0.00000000
         1         1         1         1        20        17      0.00000000
         1         1         1         1        20        18      0.00000000
         1         1         1         1        20        19     -0.00000000
         1         1         1         1        20        20     -0.00000576
         1         1         1         1        20        21     -0.00000000
         1         1         1         1        20        22      0.00000000
         1         1         1         1        20        23     -0.00000000
         1         1         1         1        20        24      0.00000000
         1         1         1         1        20        25      0.00000000
         1         1         1         1        21         1      0.00000000
         1         1         1         1        21         2      0.00000000
         1         1         1         1        21         3     -0.00000000
         1         1         1         1        21         4     -0.00000000
         1         1         1         1        21         5     -0.00000000
         1         1         1         1        21         6      0.00000000
         1         1         1         1        21         7     -0.00000000
         1         1         1         1        21         8      0.00000000
         1         1         1         1        21         9      0.00000000
         1         1         1         1        21        10      0.00000000
         1         1         1         1        21        11      0.00000000
         1         1         1         1        21        12      0.00000000
         1         1         1         1        21        13     -0.00000000
         1         1         1         1        21        14     -0.00000000
         1         1         1         1        21        15     -0.00000000
         1         1         1         1        21        16     -0.00000000
         1         1         1         1        21        17     -0.00000000
         1         1         1         1        21        18      0.00000000
         1         1         1         1        21        19      0.00000000
         1         1         1         1        21        20     -0.00000000
         1         1         1         1        21        21     -0.00000576
         1         1         1         1        21        22     -0.00000000
         1         1         1         1        21        23     -0.00000000
         1         1         1         1        21        24      0.00000000
         1         1         1         1        21        25     -0.00000000
         1         1         1         1        22         1     -0.00000000
         1         1         1         1        22         2     -0.00000000
         1         1         1         1        22         3     -0.00000000
         1         1         1         1        22         4     -0.00011038
         1         1         1         1        22         5     -0.00000000
         1         1         1         1        22         6      0.00000000
         1         1         1         1        22         7      0.00000000
         1         1         1         1        22         8      0.00022863
         1         1         1         1        22         9     -0.00000000
         1         1         1         1        22        10     -0.00000000
         1         1         1         1        22        11      0.00008960
         1         1         1         1        22        12      0.00000000
         1         1         1         1        22        13      0.00000000
         1         1         1         1        22        14      0.00000000
         1         1         1         1        22        15     -0.00000000
         1         1         1         1        22        16     -0.00000000
         1         1         1         1        22        17      0.00000000
         1         1         1         1        22        18      0.00000000
         1         1         1         1        22        19      0.00000000
         1         1         1         1        22        20      0.00000000
         1         1         1         1        22        21     -0.00000000
         1         1         1         1        22        22     -0.00031082
         1         1         1         1        22        23      0.00000000
         1         1         1         1        22        24     -0.00000000
         1         1         1         1        22        25      0.00000000
         1         1         1         1        23         1     -0.00000000
         1         1         1         1        23         2      0.00000000
         1         1         1         1        23         3      0.00000000
         1         1         1         1        23         4     -0.00000000
         1         1         1         1        23         5     -0.00005477
         1         1         1         1        23         6      0.00000918
         1         1         1         1        23         7      0.00000000
         1         1         1         1        23         8     -0.00000000
         1         1         1         1        23         9      0.00000000
         1         1         1         1        23        10      0.00000000
         1         1         1         1        23        11      0.00000000
         1         1         1         1        23        12      0.00030714
         1         1         1         1        23        13     -0.00038127
         1         1         1         1        23        14      0.00000000
         1         1         1         1        23        15     -0.00000000
         1         1         1         1        23        16      0.00000000
         1         1         1         1        23        17     -0.00000000
         1         1         1         1        23        18     -0.00000000
         1         1         1         1        23        19     -0.00000000
         1         1         1         1        23        20     -0.00000000
         1         1         1         1        23        21     -0.00000000
         1         1         1         1        23        22      0.00000000
         1         1         1         1        23        23     -0.00032556
         1         1         1         1        23        24      0.00000000
         1         1         1         1        23        25      0.00000000
         1         1         1         1        24         1      0.00000000
         1         1         1         1        24         2     -0.00000000
         1         1         1         1        24         3      0.00000000
         1         1         1         1        24         4     -0.00000000
         1         1         1         1        24         5      0.00000918
         1         1         1         1        24         6      0.00005477
         1         1         1         1        24         7      0.00000000
         1         1         1         1        24         8      0.00000000
         1         1         1         1        24         9      0.00000000
         1         1         1         1        24        10     -0.00000000
         1         1         1         1        24        11      0.00000000
         1         1         1         1        24        12     -0.00038127
         1         1         1         1        24        13     -0.00030714
         1         1         1         1        24        14      0.00000000
         1         1         1         1        24        15     -0.00000000
         1         1         1         1        24        16      0.00000000
         1         1         1         1        24        17     -0.00000000
         1         1         1         1        24        18      0.00000000
         1         1         1         1        24        19     -0.00000000
         1         1         1         1        24        20      0.00000000
         1         1         1         1        24        21      0.00000000
         1         1         1         1        24        22     -0.00000000
         1         1         1         1        24        23      0.00000000
         1         1         1         1        24        24     -0.00032556
         1         1         1         1        24        25      0.00000000
         1         1         1         1        25         1     -0.00047387
         1         1         1         1        25         2      0.00000000
         1         1         1         1        25         3      0.00000000
         1         1         1         1        25         4      0.00000000
         1         1         1         1        25         5     -0.00000000
         1         1         1         1        25         6      0.00000000
         1         1         1         1        25         7      0.00053633
         1         1         1         1        25         8     -0.00000000
         1         1         1         1        25         9      0.00000000
         1         1         1         1        25        10      0.00000000
         1         1         1         1        25        11      0.00000000
         1         1         1         1        25        12     -0.00000000
         1         1         1         1        25        13      0.00000000
         1         1         1         1        25        14     -0.00116975
         1         1         1         1        25        15     -0.00003147
         1         1         1         1        25        16     -0.00000000
         1         1         1         1        25        17     -0.00000000
         1         1         1         1        25        18      0.00000000
         1         1         1         1        25        19     -0.00000000
         1         1         1         1        25        20      0.00000000
         1         1         1         1        25        21     -0.00000000
         1         1         1         1        25        22      0.00000000
         1         1         1         1        25        23      0.00000000
         1         1         1         1        25        24      0.00000000
         1         1         1         1        25        25     -0.00283952
         2         1         1         1         1         1      0.00000000
         2         1         1         1         1         2      0.00000000
         2         1         1         1         1         3      0.00000000
         2         1         1         1         1         4      0.00003510
         2         1         1         1         1         5      0.00000000
         2         1         1         1         1         6     -0.00000000
         2         1         1         1         1         7     -0.00000000
         2         1         1         1         1         8     -0.00002334
         2         1         1         1         1         9      0.00000000
         2         1         1         1         1        10      0.00000000
         2         1         1         1         1        11     -0.00046125
         2         1         1         1         1        12     -0.00000000
         2         1         1         1         1        13     -0.00000000
         2         1         1         1         1        14      0.00000000
         2         1         1         1         1        15      0.00000000
         2         1         1         1         1        16      0.00000000
         2         1         1         1         1        17      0.00000000
         2         1         1         1         1        18      0.00000000
         2         1         1         1         1        19     -0.00000000
         2         1         1         1         1        20     -0.00000000
         2         1         1         1         1        21      0.00000000
         2         1         1         1         1        22      0.00023755
         2         1         1         1         1        23      0.00000000
         2         1         1         1         1        24      0.00000000
         2         1         1         1         1        25     -0.00000000
         2         1         1         1         2         1      0.00000000
         2         1         1         1         2         2      0.00000000
         2         1         1         1         2         3     -0.00000000
         2         1         1         1         2         4     -0.00000000
         2         1         1         1         2         5     -0.00002588
         2         1         1         1         2         6     -0.00000199
         2         1         1         1         2         7     -0.00000000
         2         1         1         1         2         8      0.00000000
         2         1         1         1         2         9      0.00000000
         2         1         1         1         2        10      0.00000000
         2         1         1         1         2        11     -0.00000000
         2         1         1         1         2        12      0.00017427
         2         1         1         1         2        13     -0.00013241
         2         1         1         1         2        14      0.00000000
         2         1         1         1         2        15      0.00000000
         2         1         1         1         2        16     -0.00000000
         2         1         1         1         2        17      0.00000000
         2         1         1         1         2        18      0.00000000
         2         1         1         1         2        19      0.00000000
         2         1         1         1         2        20     -0.00000000
         2         1         1         1         2        21     -0.00000000
         2         1         1         1         2        22     -0.00000000
         2         1         1         1         2        23     -0.00013406
         2         1         1         1         2        24      0.00003323
         2         1         1         1         2        25      0.00000000
         2         1         1         1         3         1      0.00000000
         2         1         1         1         3         2     -0.00000000
         2         1         1         1         3         3      0.00000000
         2         1         1         1         3         4      0.00000000
         2         1         1         1         3         5     -0.00000199
         2         1         1         1         3         6      0.00002588
         2         1         1         1         3         7     -0.00000000
         2         1         1         1         3         8     -0.00000000
         2         1         1         1         3         9      0.00000000
         2         1         1         1         3        10     -0.00000000
         2         1         1         1         3        11      0.00000000
         2         1         1         1         3        12     -0.00013241
         2         1         1         1         3        13     -0.00017427
         2         1         1         1         3        14     -0.00000000
         2         1         1         1         3        15      0.00000000
         2         1         1         1         3        16     -0.00000000
         2         1         1         1         3        17     -0.00000000
         2         1         1         1         3        18     -0.00000000
         2         1         1         1         3        19      0.00000000
         2         1         1         1         3        20     -0.00000000
         2         1         1         1         3        21      0.00000000
         2         1         1         1         3        22      0.00000000
         2         1         1         1         3        23     -0.00003323
         2         1         1         1         3        24     -0.00013406
         2         1         1         1         3        25     -0.00000000
         2         1         1         1         4         1      0.00004252
         2         1         1         1         4         2     -0.00000000
         2         1         1         1         4         3      0.00000000
         2         1         1         1         4         4      0.00000000
         2         1         1         1         4         5     -0.00000000
         2         1         1         1         4         6     -0.00000000
         2         1         1         1         4         7     -0.00008515
         2         1         1         1         4         8     -0.00000000
         2         1         1         1         4         9     -0.00000000
         2         1         1         1         4        10     -0.00000000
         2         1         1         1         4        11      0.00000000
         2         1         1         1         4        12      0.00000000
         2         1         1         1         4        13      0.00000000
         2         1         1         1         4        14     -0.00017975
         2         1         1         1         4        15      0.00012325
         2         1         1         1         4        16     -0.00000000
         2         1         1         1         4        17      0.00000000
         2         1         1         1         4        18      0.00000000
         2         1         1         1         4        19      0.00000000
         2         1         1         1         4        20      0.00000000
         2         1         1         1         4        21     -0.00000000
         2         1         1         1         4        22      0.00000000
         2         1         1         1         4        23     -0.00000000
         2         1         1         1         4        24      0.00000000
         2         1         1         1         4        25     -0.00036003
         2         1         1         1         5         1      0.00000000
         2         1         1         1         5         2     -0.00002799
         2         1         1         1         5         3     -0.00000215
         2         1         1         1         5         4     -0.00000000
         2         1         1         1         5         5      0.00000000
         2         1         1         1         5         6      0.00000000
         2         1         1         1         5         7     -0.00000000
         2         1         1         1         5         8     -0.00000000
         2         1         1         1         5         9     -0.00001731
         2         1         1         1         5        10     -0.00009156
         2         1         1         1         5        11     -0.00000000
         2         1         1         1         5        12      0.00000000
         2         1         1         1         5        13     -0.00000000
         2         1         1         1         5        14      0.00000000
         2         1         1         1         5        15      0.00000000
         2         1         1         1         5        16      0.00000000
         2         1         1         1         5        17      0.00000000
         2         1         1         1         5        18      0.00001510
         2         1         1         1         5        19      0.00001048
         2         1         1         1         5        20     -0.00000000
         2         1         1         1         5        21      0.00000000
[...]
         3         3         1         1        17         3     -0.00000000
         3         3         1         1        17         4      0.00000000
         3         3         1         1        17         5      0.00000000
         3         3         1         1        17         6      0.00000000
         3         3         1         1        17         7     -0.00000000
         3         3         1         1        17         8     -0.00000000
         3         3         1         1        17         9     -0.00000000
         3         3         1         1        17        10     -0.00000000
         3         3         1         1        17        11     -0.00000000
         3         3         1         1        17        12     -0.00000000
         3         3         1         1        17        13      0.00000000
         3         3         1         1        17        14     -0.00000000
         3         3         1         1        17        15      0.00000000
         3         3         1         1        17        16     -0.00000000
         3         3         1         1        17        17     -0.00637989
         3         3         1         1        17        18     -0.00000000
         3         3         1         1        17        19      0.00000000
         3         3         1         1        17        20      0.00000000
         3         3         1         1        17        21     -0.00000000
         3         3         1         1        17        22     -0.00000000
         3         3         1         1        17        23      0.00000000
         3         3         1         1        17        24     -0.00000000
         3         3         1         1        17        25      0.00000000
         3         3         1         1        18         1     -0.00000000
         3         3         1         1        18         2     -0.02754815
         3         3         1         1        18         3      0.01614699
         3         3         1         1        18         4     -0.00000000
         3         3         1         1        18         5     -0.00000000
         3         3         1         1        18         6     -0.00000000
         3         3         1         1        18         7     -0.00000000
         3         3         1         1        18         8     -0.00000000
         3         3         1         1        18         9      0.01028295
         3         3         1         1        18        10     -0.02302046
         3         3         1         1        18        11     -0.00000000
         3         3         1         1        18        12      0.00000000
         3         3         1         1        18        13     -0.00000000
         3         3         1         1        18        14     -0.00000000
         3         3         1         1        18        15     -0.00000000
         3         3         1         1        18        16     -0.00000000
         3         3         1         1        18        17     -0.00000000
         3         3         1         1        18        18     -0.01353740
         3         3         1         1        18        19     -0.00000000
         3         3         1         1        18        20     -0.00000000
         3         3         1         1        18        21     -0.00000000
         3         3         1         1        18        22     -0.00000000
         3         3         1         1        18        23      0.00000000
         3         3         1         1        18        24     -0.00000000
         3         3         1         1        18        25      0.00000000
         3         3         1         1        19         1      0.00000000
         3         3         1         1        19         2     -0.01614699
         3         3         1         1        19         3     -0.02754815
         3         3         1         1        19         4      0.00000000
         3         3         1         1        19         5     -0.00000000
         3         3         1         1        19         6      0.00000000
         3         3         1         1        19         7     -0.00000000
         3         3         1         1        19         8      0.00000000
         3         3         1         1        19         9     -0.02302046
         3         3         1         1        19        10     -0.01028295
         3         3         1         1        19        11     -0.00000000
         3         3         1         1        19        12     -0.00000000
         3         3         1         1        19        13     -0.00000000
         3         3         1         1        19        14     -0.00000000
         3         3         1         1        19        15      0.00000000
         3         3         1         1        19        16      0.00000000
         3         3         1         1        19        17      0.00000000
         3         3         1         1        19        18     -0.00000000
         3         3         1         1        19        19     -0.01353740
         3         3         1         1        19        20      0.00000000
         3         3         1         1        19        21     -0.00000000
         3         3         1         1        19        22      0.00000000
         3         3         1         1        19        23      0.00000000
         3         3         1         1        19        24      0.00000000
         3         3         1         1        19        25     -0.00000000
         3         3         1         1        20         1      0.00000000
         3         3         1         1        20         2     -0.00000000
         3         3         1         1        20         3      0.00000000
         3         3         1         1        20         4      0.00000000
         3         3         1         1        20         5     -0.00000000
         3         3         1         1        20         6      0.00000000
         3         3         1         1        20         7     -0.00000000
         3         3         1         1        20         8      0.00000000
         3         3         1         1        20         9      0.00000000
         3         3         1         1        20        10     -0.00000000
         3         3         1         1        20        11     -0.00000000
         3         3         1         1        20        12      0.00000000
         3         3         1         1        20        13     -0.00000000
         3         3         1         1        20        14      0.00000000
         3         3         1         1        20        15     -0.00000000
         3         3         1         1        20        16     -0.00000000
         3         3         1         1        20        17      0.00000000
         3         3         1         1        20        18     -0.00000000
         3         3         1         1        20        19      0.00000000
         3         3         1         1        20        20     -0.00202031
         3         3         1         1        20        21     -0.00000000
         3         3         1         1        20        22     -0.00000000
         3         3         1         1        20        23     -0.00000000
         3         3         1         1        20        24     -0.00000000
         3         3         1         1        20        25      0.00000000
         3         3         1         1        21         1     -0.00000000
         3         3         1         1        21         2     -0.00000000
         3         3         1         1        21         3     -0.00000000
         3         3         1         1        21         4     -0.00000000
         3         3         1         1        21         5      0.00000000
         3         3         1         1        21         6     -0.00000000
         3         3         1         1        21         7     -0.00000000
         3         3         1         1        21         8     -0.00000000
         3         3         1         1        21         9     -0.00000000
         3         3         1         1        21        10     -0.00000000
         3         3         1         1        21        11      0.00000000
         3         3         1         1        21        12      0.00000000
         3         3         1         1        21        13      0.00000000
         3         3         1         1        21        14     -0.00000000
         3         3         1         1        21        15     -0.00000000
         3         3         1         1        21        16     -0.00000000
         3         3         1         1        21        17     -0.00000000
         3         3         1         1        21        18     -0.00000000
         3         3         1         1        21        19     -0.00000000
         3         3         1         1        21        20     -0.00000000
         3         3         1         1        21        21     -0.00202031
         3         3         1         1        21        22      0.00000000
         3         3         1         1        21        23     -0.00000000
         3         3         1         1        21        24     -0.00000000
         3         3         1         1        21        25      0.00000000
         3         3         1         1        22         1     -0.00000000
         3         3         1         1        22         2      0.00000000
         3         3         1         1        22         3     -0.00000000
         3         3         1         1        22         4     -0.01904368
         3         3         1         1        22         5      0.00000000
         3         3         1         1        22         6     -0.00000000
         3         3         1         1        22         7     -0.00000000
         3         3         1         1        22         8      0.02547991
         3         3         1         1        22         9      0.00000000
         3         3         1         1        22        10     -0.00000000
         3         3         1         1        22        11     -0.00180768
         3         3         1         1        22        12      0.00000000
         3         3         1         1        22        13      0.00000000
         3         3         1         1        22        14     -0.00000000
         3         3         1         1        22        15     -0.00000000
         3         3         1         1        22        16     -0.00000000
         3         3         1         1        22        17     -0.00000000
         3         3         1         1        22        18     -0.00000000
         3         3         1         1        22        19      0.00000000
         3         3         1         1        22        20     -0.00000000
         3         3         1         1        22        21      0.00000000
         3         3         1         1        22        22     -0.01193665
         3         3         1         1        22        23      0.00000000
         3         3         1         1        22        24      0.00000000
         3         3         1         1        22        25     -0.00000000
         3         3         1         1        23         1     -0.00000000
         3         3         1         1        23         2     -0.00000000
         3         3         1         1        23         3     -0.00000000
         3         3         1         1        23         4     -0.00000000
         3         3         1         1        23         5     -0.00134253
         3         3         1         1        23         6      0.00022513
         3         3         1         1        23         7      0.00000000
         3         3         1         1        23         8     -0.00000000
         3         3         1         1        23         9     -0.00000000
         3         3         1         1        23        10     -0.00000000
         3         3         1         1        23        11      0.00000000
         3         3         1         1        23        12      0.00167656
         3         3         1         1        23        13     -0.00208125
         3         3         1         1        23        14      0.00000000
         3         3         1         1        23        15     -0.00000000
         3         3         1         1        23        16     -0.00000000
         3         3         1         1        23        17      0.00000000
         3         3         1         1        23        18      0.00000000
         3         3         1         1        23        19      0.00000000
         3         3         1         1        23        20     -0.00000000
         3         3         1         1        23        21     -0.00000000
         3         3         1         1        23        22      0.00000000
         3         3         1         1        23        23     -0.00238614
         3         3         1         1        23        24      0.00000000
         3         3         1         1        23        25      0.00000000
         3         3         1         1        24         1     -0.00000000
         3         3         1         1        24         2      0.00000000
         3         3         1         1        24         3     -0.00000000
         3         3         1         1        24         4     -0.00000000
         3         3         1         1        24         5      0.00022513
         3         3         1         1        24         6      0.00134253
         3         3         1         1        24         7     -0.00000000
         3         3         1         1        24         8     -0.00000000
         3         3         1         1        24         9     -0.00000000
         3         3         1         1        24        10      0.00000000
         3         3         1         1        24        11      0.00000000
         3         3         1         1        24        12     -0.00208125
         3         3         1         1        24        13     -0.00167656
         3         3         1         1        24        14     -0.00000000
         3         3         1         1        24        15     -0.00000000
         3         3         1         1        24        16     -0.00000000
         3         3         1         1        24        17     -0.00000000
         3         3         1         1        24        18     -0.00000000
         3         3         1         1        24        19      0.00000000
         3         3         1         1        24        20     -0.00000000
         3         3         1         1        24        21     -0.00000000
         3         3         1         1        24        22      0.00000000
         3         3         1         1        24        23      0.00000000
         3         3         1         1        24        24     -0.00238614
         3         3         1         1        24        25      0.00000000
         3         3         1         1        25         1      0.00697200
         3         3         1         1        25         2     -0.00000000
         3         3         1         1        25         3     -0.00000000
         3         3         1         1        25         4     -0.00000000
         3         3         1         1        25         5     -0.00000000
         3         3         1         1        25         6     -0.00000000
         3         3         1         1        25         7     -0.00644498
         3         3         1         1        25         8      0.00000000
         3         3         1         1        25         9     -0.00000000
         3         3         1         1        25        10     -0.00000000
         3         3         1         1        25        11      0.00000000
         3         3         1         1        25        12      0.00000000
         3         3         1         1        25        13      0.00000000
         3         3         1         1        25        14     -0.00009196
         3         3         1         1        25        15      0.00599741
         3         3         1         1        25        16     -0.00000000
         3         3         1         1        25        17      0.00000000
         3         3         1         1        25        18      0.00000000
         3         3         1         1        25        19     -0.00000000
         3         3         1         1        25        20      0.00000000
         3         3         1         1        25        21      0.00000000
         3         3         1         1        25        22     -0.00000000
         3         3         1         1        25        23      0.00000000
         3         3         1         1        25        24      0.00000000
         3         3         1         1        25        25     -0.00355044


 RESULTS
 =======

  Reference energy                    -14.869231121669

  Correlated core orbitals:             1.1       2.1
  Orbital energies:                    -2.4475   -2.4472

  CISD core-core energy                -0.000353170412
  CISD core-valence energy             -0.000519909885
  CISD valence correlation energy      -0.031133776023

  CISD singlet pair energy             -0.031842557654
  CISD triplet pair energy             -0.000143700203
  CISD correlation energy              -0.032006856320

 !CISD total energy                   -14.901237977989

 Timing summary (sec):

 STEP                 CPU(USER)    SYS     CPU(TOT)    WALL
 Transformation          0.01      0.01      0.02      0.01
 CCSD iterations         0.16      0.01      0.17      0.20

 Program statistics:

 Available memory in ccsd:                39999164
 Min. memory needed in ccsd:                 19895
 Max. memory used in ccsd:                   21284
 Max. memory used in cckext:                 46800 (32 integral passes)



 **********************************************************************************************************************************
 DATASETS  * FILE   NREC   LENGTH (MB)   RECORD NAMES
              1      20       30.17       500      700      610      900      950      970     1000      129      960     1100   
                                          VAR     GEOM    BASINP   SYMINP    ZMAT    AOBASIS   BASIS     P2S    ABASIS      S 
                                         1400     1410     1200     1210     1080     1600     1650     1300     1700     1380   
                                           T        V       H0       H01     AOSYM     SMH    MOLCAS    ERIS     OPER     JKOP   

              3       5       14.79       500      610      700     1000     2100   
                                          VAR    BASINP    GEOM     BASIS     RHF  

 PROGRAMS   *        TOTAL      CISD       INT   RESTART
 CPU TIMES  *         0.56      0.25      0.18      0.02
 REAL TIME  *         0.74 SEC
 DISK USED  *        49.48 MB
 **********************************************************************************************************************************
 Molecular orbitals read from record     2100.3  Type=RHF/CANONICAL (state 1.1)
 Occupation numbers read from record     2100.3  Type=RHF/RHF (state 1.1)
 Orbital energies read from record       2100.3  Type=RHF/CANONICAL (state 1.1)
 Redundancy group numbers read from rec  2100.3  Type=RHF/RHF (state 1.1)

 CISD/cc-pVDZ energy=    -14.901237977989

            CISD
    -14.90123798
 **********************************************************************************************************************************
 Molpro calculation terminated
