
 Primary working directories    : /scr/yuriaoto/job.022413/molpro.zbNQiT0hVo
 Secondary working directories  : /scr/yuriaoto/job.022413/molpro.zbNQiT0hVo
 Wavefunction directory         : /scr/yuriaoto/job.022413/
 Main file repository           : /scr/yuriaoto/job.022413/molpro.zbNQiT0hVo/

 id        : yuriaoto

 Nodes             nprocs
 t-rex.ufabc.int.br    1

 Using customized tuning parameters: mindgm=8; mindgv=16; mindgc=1; mindgr=1; noblas=0; minvec=7
 default implementation of scratch files=df  


 Variables initialized (933), CPU time= 0.01 sec
 ***,
 memory,40,m
 gprint,orbital=15,basis
 gthresh,thrprint=0
 file,3,wfu.dat,new
 
 r = 5.0
 basis = cc-pVDZ
 
 nosym
 geom={Li1;Li2,Li1,r}
 
 {rhf
 wf,6,1,0
 orbital,2100.3
 }
 
 {put,xml,orbitals.xml; nosort; novariables}
 
 Commands  initialized (760), CPU time= 0.00 sec, 617 directives.
 Default parameters read. Elapsed time= 0.03 sec

 Checking input...
 Passed
1


                                         ***  PROGRAM SYSTEM MOLPRO  ***
                                       Copyright, TTI GmbH Stuttgart, 2015
                                    Version 2019.2 linked Abr  7 2019 15:10:35


 **********************************************************************************************************************************
 LABEL *                                                                                 
  64 bit serial version                                                                  DATE: 21-Oct-19          TIME: 10:48:02  
 **********************************************************************************************************************************

 SHA1:             3a8a58c585c929645742fb5a1b7541a4ad1da699
 **********************************************************************************************************************************


 THRESHOLDS:

 ZERO    =  1.00D-12  ONEINT  =  1.00D-12  TWOINT  =  1.00D-11  PREFAC  =  1.00D-14  XXXXXX  =  1.00D-09  EORDER  =  1.00D-04
 ENERGY  =  0.00D+00  ETEST   =  0.00D+00  EDENS   =  0.00D+00  THRDEDEF=  1.00D-06  GRADIENT=  1.00D-02  STEP    =  1.00D-03
 ORBITAL =  1.00D-05  CIVEC   =  1.00D-05  COEFF   =  1.00D-04  PRINTCI =  5.00D-02  PUNCHCI =  9.90D+01  OPTGRAD =  3.00D-04
 OPTENERG=  1.00D-06  OPTSTEP =  3.00D-04  THRGRAD =  1.00D-10  COMPRESS=  1.00D-11  VARMIN  =  1.00D-07  VARMAX  =  1.00D-03
 THRDOUB =  0.00D+00  THRDIV  =  1.00D-05  THRRED  =  1.00D-07  THRPSP  =  1.00D+00  THRDC   =  1.00D-10  THRCS   =  1.00D-10
 THRNRM  =  1.00D-08  THREQ   =  0.00D+00  THRDE   =  1.00D+00  THRREF  =  1.00D-05  SPARFAC =  1.00D+00  THRDLP  =  1.00D-07
 THRDIA  =  1.00D-10  THRDLS  =  1.00D-07  THRGPS  =  0.00D+00  THRKEX  =  0.00D+00  THRDIS  =  2.00D-01  THRVAR  =  1.00D-10
 THRLOC  =  1.00D-06  THRGAP  =  1.00D-06  THRLOCT = -1.00D+00  THRGAPT = -1.00D+00  THRORB  =  1.00D-06  THRMLTP =  0.00D+00
 THRCPQCI=  1.00D-10  KEXTA   =  0.00D+00  THRCOARS=  0.00D+00  SYMTOL  =  1.00D-06  GRADTOL =  1.00D-06  THROVL  =  1.00D-08
 THRORTH =  1.00D-08  GRID    =  1.00D-06  GRIDMAX =  1.00D-03  DTMAX   =  0.00D+00  THROCCDE=  1.00D-01  THROCCDE=  1.00D-01
 THRPRINT=  0.00D+00


 Variable memory set to   40000000 words,  buffer space 



 Permanent file  3  wfu.dat  assigned.  Implementation=df  



 **********************************************************************************************************************************
 DATASETS  * FILE   NREC   LENGTH (MB)   RECORD NAMES
              3       1        0.03       500   
                                          VAR  

 PROGRAMS   *        TOTAL      FILE
 CPU TIMES  *         0.08      0.01
 REAL TIME  *         0.08 SEC
 DISK USED  *         0.09 MB
 **********************************************************************************************************************************
 SETTING R              =         5.00000000                                  
 SETTING BASIS          =    CC-PVDZ
 ZSYMEL=NOSYM



 Recomputing integrals since basis changed


 Using spherical harmonics

 Library entry LI     S cc-pVDZ              selected for orbital group  1
 Library entry LI     P cc-pVDZ              selected for orbital group  1
 Library entry LI     D cc-pVDZ              selected for orbital group  1


 PROGRAM * SEWARD (Integral evaluation for generally contracted gaussian basis sets)     Author: Roland Lindh, 1990

 Geometry written to block  1 of record 700

 Orientation using atomic masses  
 Molecule type: Linear
 Rotational constants:      20.8009354     20.8009354      0.0000000 GHz  (calculated with average atomic masses)

 Point group  C1  



 ATOMIC COORDINATES

 NR  ATOM    CHARGE       X              Y              Z

   1  LI1     3.00    0.000000000    0.000000000   -2.500000000
   2  LI2     3.00    0.000000000    0.000000000    2.500000000

 Bond lengths in Bohr (Angstrom)

 1-2  5.000000000
     ( 2.645886055)


 BASIS DATA

   Nr Sym  Nuc  Type         Exponents   Contraction coefficients

    1.1 A     1  1s        1469.000000     0.000766   -0.000120    0.000000
    2.1 A                   220.500000     0.005892   -0.000923    0.000000
    3.1 A                    50.260000     0.029671   -0.004689    0.000000
                             14.240000     0.109180   -0.017682    0.000000
                              4.581000     0.282789   -0.048902    0.000000
                              1.580000     0.453123   -0.096009    0.000000
                              0.564000     0.274774   -0.136380    0.000000
                              0.073450     0.009751    0.575102    0.000000
                              0.028050    -0.003180    0.517661    1.000000
    4.1 A     1  2px          1.534000     0.022784
                              0.274900     0.139107
                              0.073620     0.500375
                              0.024030     0.508474
    5.1 A     1  2py          1.534000     0.022784
                              0.274900     0.139107
                              0.073620     0.500375
                              0.024030     0.508474
    6.1 A     1  2pz          1.534000     0.022784
                              0.274900     0.139107
                              0.073620     0.500375
                              0.024030     0.508474
    7.1 A     1  2px          1.534000     0.000000
                              0.274900     0.000000
                              0.073620     0.000000
                              0.024030     1.000000
    8.1 A     1  2py          1.534000     0.000000
                              0.274900     0.000000
                              0.073620     0.000000
                              0.024030     1.000000
    9.1 A     1  2pz          1.534000     0.000000
                              0.274900     0.000000
                              0.073620     0.000000
                              0.024030     1.000000
   10.1 A     1  3d0          0.114400     1.000000
   11.1 A     1  3d2-         0.114400     1.000000
   12.1 A     1  3d1+         0.114400     1.000000
   13.1 A     1  3d2+         0.114400     1.000000
   14.1 A     1  3d1-         0.114400     1.000000
   15.1 A     2  1s        1469.000000     0.000766   -0.000120    0.000000
   16.1 A                   220.500000     0.005892   -0.000923    0.000000
   17.1 A                    50.260000     0.029671   -0.004689    0.000000
                             14.240000     0.109180   -0.017682    0.000000
                              4.581000     0.282789   -0.048902    0.000000
                              1.580000     0.453123   -0.096009    0.000000
                              0.564000     0.274774   -0.136380    0.000000
                              0.073450     0.009751    0.575102    0.000000
                              0.028050    -0.003180    0.517661    1.000000
   18.1 A     2  2px          1.534000     0.022784
                              0.274900     0.139107
                              0.073620     0.500375
                              0.024030     0.508474
   19.1 A     2  2py          1.534000     0.022784
                              0.274900     0.139107
                              0.073620     0.500375
                              0.024030     0.508474
   20.1 A     2  2pz          1.534000     0.022784
                              0.274900     0.139107
                              0.073620     0.500375
                              0.024030     0.508474
   21.1 A     2  2px          1.534000     0.000000
                              0.274900     0.000000
                              0.073620     0.000000
                              0.024030     1.000000
   22.1 A     2  2py          1.534000     0.000000
                              0.274900     0.000000
                              0.073620     0.000000
                              0.024030     1.000000
   23.1 A     2  2pz          1.534000     0.000000
                              0.274900     0.000000
                              0.073620     0.000000
                              0.024030     1.000000
   24.1 A     2  3d0          0.114400     1.000000
   25.1 A     2  3d2-         0.114400     1.000000
   26.1 A     2  3d1+         0.114400     1.000000
   27.1 A     2  3d2+         0.114400     1.000000
   28.1 A     2  3d1-         0.114400     1.000000

 NUCLEAR CHARGE:                    6
 NUMBER OF PRIMITIVE AOS:          54
 NUMBER OF SYMMETRY AOS:           52
 NUMBER OF CONTRACTIONS:           28   (   28A   )
 NUMBER OF CORE ORBITALS:           2   (    2A   )
 NUMBER OF VALENCE ORBITALS:        8   (    8A   )


 NUCLEAR REPULSION ENERGY    1.80000000

 EXTRA SYMMETRY OF AOS IN SYMMETRY 1:   1 1 1 2 3 1 2 3 1 1   4 2 5 3 1 1 1 2 3 1   2 3 1 1 4 2 5 3

 Eigenvalues of metric

         1 0.256E-02 0.901E-02 0.313E-01 0.586E-01 0.586E-01 0.995E-01 0.101E+00 0.135E+00


 Contracted 2-electron integrals neglected if value below      1.0D-11
 AO integral compression algorithm  1   Integral accuracy      1.0D-11

     0.262 MB (compressed) written to integral file ( 36.0%)


 NUMBER OF SORTED TWO-ELECTRON INTEGRALS:      82621.     BUFFER LENGTH:  32768
 NUMBER OF SEGMENTS:   1  SEGMENT LENGTH:      82621      RECORD LENGTH: 524288

 Memory used in sort:       0.64 MW

 SORT1 READ      119167. AND WROTE       19125. INTEGRALS IN      1 RECORDS. CPU TIME:     0.00 SEC, REAL TIME:     0.00 SEC
 SORT2 READ       19125. AND WROTE       82621. INTEGRALS IN      1 RECORDS. CPU TIME:     0.02 SEC, REAL TIME:     0.03 SEC

 FILE SIZES:   FILE 1:    30.2 MBYTE,  FILE 4:     4.2 MBYTE,   TOTAL:     34.5 MBYTE

 OPERATOR DM      FOR CENTER  0  COORDINATES:    0.000000    0.000000    0.000000


 **********************************************************************************************************************************
 DATASETS  * FILE   NREC   LENGTH (MB)   RECORD NAMES
              1      19       30.10       500      610      700      900      950      970     1000      129      960     1100   
                                          VAR    BASINP    GEOM    SYMINP    ZMAT    AOBASIS   BASIS     P2S    ABASIS      S 
                                         1400     1410     1200     1210     1080     1600     1650     1300     1700   
                                           T        V       H0       H01     AOSYM     SMH    MOLCAS    ERIS     OPER   

              3       4       12.28       500      610      700     1000   
                                          VAR    BASINP    GEOM     BASIS   

 PROGRAMS   *        TOTAL       INT      FILE
 CPU TIMES  *         0.23      0.15      0.01
 REAL TIME  *         0.34 SEC
 DISK USED  *        46.97 MB
 **********************************************************************************************************************************


 PROGRAM * RHF-SCF (CLOSED SHELL)       Authors: W. Meyer, H.-J. Werner


 NUMBER OF ELECTRONS:       3+    3-    SPACE SYMMETRY=1    SPIN SYMMETRY: Singlet 
 CONVERGENCE THRESHOLDS:    1.00E-05 (Density)    1.00E-07 (Energy)
 MAX. NUMBER OF ITERATIONS:       60
 INTERPOLATION TYPE:            DIIS
 INTERPOLATION STEPS:              2 (START)      1 (STEP)
 LEVEL SHIFTS:                  0.00 (CLOSED)  0.00 (OPEN) 



 Orbital guess generated from atomic densities. Full valence occupancy:    4

 Molecular orbital dump at record        2100.3

 Initial occupancy:   3

 ITERATION    DDIFF          GRAD             ENERGY        2-EL.EN.            DIPOLE MOMENTS         DIIS   ORB.
    1      0.000D+00      0.000D+00       -14.86794423     12.940541   -0.00000    0.00000   -0.00000    0    start
    2      0.000D+00      0.169D-02       -14.86901341     13.003377   -0.00000    0.00000   -0.00000    1    diag
    3      0.530D-02      0.608D-03       -14.86922512     13.035103   -0.00000   -0.00000   -0.00000    2    diag
    4      0.321D-02      0.817D-04       -14.86923102     13.036363   -0.00000   -0.00000   -0.00000    3    diag
    5      0.909D-03      0.113D-04       -14.86923112     13.036059   -0.00000   -0.00000   -0.00000    4    diag
    6      0.163D-03      0.136D-05       -14.86923112     13.036024   -0.00000   -0.00000   -0.00000    5    diag
    7      0.161D-04      0.202D-06       -14.86923112     13.036037   -0.00000   -0.00000   -0.00000    6    diag
    8      0.246D-05      0.238D-07       -14.86923112     13.036038   -0.00000   -0.00000   -0.00000    0    orth

 Final occupancy:   3

 !RHF STATE  1.1 Energy               -14.869231121669
 Nuclear energy                         1.80000000
 One-electron energy                  -23.18725017
 Two-electron energy                    6.51801905
 Virial quotient                       -0.99544568
 !RHF STATE  1.1 Dipole moment         -0.00000000    -0.00000000    -0.00000000
 Dipole moment /Debye                  -0.00000000    -0.00000000    -0.00000000

 MOLECULAR ORBITALS
 ==================

   Orb  Occ    Energy       Coefficients

                            1 1s      1 1s      1 1s      1 2px     1 2py     1 2pz     1 2px     1 2py     1 2pz     1 3d0  
                            1 3d2-    1 3d1+    1 3d2+    1 3d1-    2 1s      2 1s      2 1s      2 2px     2 2py     2 2pz  
                            2 2px     2 2py     2 2pz     2 3d0     2 3d2-    2 3d1+    2 3d2+    2 3d1- 

   1.1   2    -2.4475     0.707003  0.000611 -0.000700  0.000000  0.000000 -0.002219  0.000000  0.000000  0.001936  0.000365
                          0.000000  0.000000 -0.000000  0.000000  0.707003  0.000611 -0.000700  0.000000 -0.000000  0.002219
                         -0.000000 -0.000000 -0.001936  0.000365  0.000000  0.000000  0.000000  0.000000

   2.1   2    -2.4472     0.705444 -0.008558 -0.012212 -0.000000 -0.000000 -0.014689 -0.000000 -0.000000  0.002506 -0.003270
                          0.000000 -0.000000  0.000000 -0.000000 -0.705444  0.008558  0.012212 -0.000000  0.000000 -0.014689
                          0.000000  0.000000  0.002506  0.003270 -0.000000 -0.000000 -0.000000 -0.000000

   3.1   2    -0.1809    -0.053629  0.527865  0.000772  0.000000 -0.000000  0.175199 -0.000000  0.000000 -0.089212  0.006479
                          0.000000 -0.000000 -0.000000 -0.000000 -0.053629  0.527865  0.000772 -0.000000  0.000000 -0.175199
                          0.000000 -0.000000  0.089212  0.006479 -0.000000  0.000000  0.000000  0.000000

   4.1   0     0.0086     0.009288 -0.345925  1.138658 -0.000000 -0.000000  0.170074  0.000000  0.000000  0.840561  0.003430
                         -0.000000 -0.000000  0.000000  0.000000 -0.009288  0.345925 -1.138658 -0.000000  0.000000  0.170074
                         -0.000000 -0.000000  0.840561 -0.003430 -0.000000 -0.000000  0.000000 -0.000000

   5.1   0     0.0322     0.000000  0.000000  0.000000  0.192413  0.012147  0.000000  0.364596  0.023016  0.000000  0.000000
                         -0.000000 -0.003879 -0.000000 -0.000245  0.000000  0.000000 -0.000000  0.192413  0.012147 -0.000000
                          0.364596  0.023016  0.000000 -0.000000  0.000000  0.003879  0.000000  0.000245

   6.1   0     0.0322     0.000000  0.000000 -0.000000 -0.012147  0.192413  0.000000 -0.023016  0.364596 -0.000000 -0.000000
                         -0.000000  0.000245  0.000000 -0.003879 -0.000000 -0.000000  0.000000 -0.012147  0.192413  0.000000
                         -0.023016  0.364596  0.000000 -0.000000  0.000000 -0.000245  0.000000  0.003879

   7.1   0     0.0451     0.030738  0.260440 -0.677634 -0.000000  0.000000  0.177930 -0.000000  0.000000  0.742451  0.005609
                          0.000000 -0.000000 -0.000000 -0.000000  0.030738  0.260440 -0.677634 -0.000000  0.000000 -0.177930
                         -0.000000  0.000000 -0.742451  0.005609  0.000000 -0.000000 -0.000000  0.000000

   8.1   0     0.0672    -0.000000  0.000000 -0.000000  0.018955  0.002668 -0.000000  1.354593  0.190676  0.000000  0.000000
                          0.000000 -0.000280  0.000000 -0.000039 -0.000000 -0.000000  0.000000 -0.018955 -0.002668 -0.000000
                         -1.354593 -0.190676 -0.000000  0.000000 -0.000000 -0.000280 -0.000000 -0.000039

   9.1   0     0.0672     0.000000  0.000000 -0.000000  0.002668 -0.018955  0.000000  0.190676 -1.354593 -0.000000 -0.000000
                          0.000000 -0.000039  0.000000  0.000280  0.000000 -0.000000  0.000000 -0.002668  0.018955  0.000000
                         -0.190676  1.354593 -0.000000 -0.000000 -0.000000 -0.000039  0.000000  0.000280

  10.1   0     0.0843    -0.123522 -0.007401  5.760468 -0.000000 -0.000000 -0.059482 -0.000000 -0.000000  2.697828  0.092707
                          0.000000  0.000000 -0.000000  0.000000  0.123522  0.007401 -5.760468 -0.000000 -0.000000 -0.059482
                         -0.000000  0.000000  2.697828 -0.092707  0.000000  0.000000 -0.000000  0.000000

  11.1   0     0.1419    -0.243163 -1.341875  1.168884 -0.000000  0.000000 -0.920720  0.000000 -0.000000  1.420595  0.051783
                         -0.000000  0.000000  0.000000  0.000000 -0.243163 -1.341875  1.168884 -0.000000  0.000000  0.920720
                          0.000000 -0.000000 -1.420595  0.051783 -0.000000  0.000000  0.000000 -0.000000

  12.1   0     0.1618     0.000000  0.000000  0.000000  0.063544  1.350334  0.000000 -0.058228 -1.237368 -0.000000  0.000000
                         -0.000000  0.000712  0.000000  0.015133  0.000000  0.000000 -0.000000  0.063544  1.350334 -0.000000
                         -0.058228 -1.237368  0.000000 -0.000000 -0.000000 -0.000712  0.000000 -0.015133

  13.1   0     0.1618    -0.000000 -0.000000  0.000000  1.350334 -0.063544 -0.000000 -1.237368  0.058228  0.000000  0.000000
                         -0.000000  0.015133 -0.000000 -0.000712 -0.000000 -0.000000  0.000000  1.350334 -0.063544  0.000000
                         -1.237368  0.058228 -0.000000  0.000000 -0.000000 -0.015133 -0.000000  0.000712

  14.1   0     0.1763    -0.352695 -2.066095  2.002845 -0.000000 -0.000000  0.958808  0.000000  0.000000 -0.788264 -0.083467
                         -0.000000  0.000000  0.000000 -0.000000 -0.352695 -2.066095  2.002845 -0.000000 -0.000000 -0.958808
                          0.000000  0.000000  0.788264 -0.083467 -0.000000  0.000000  0.000000  0.000000

  15.1   0     0.2164     0.000000  0.000000 -0.000000 -1.281626  0.851984 -0.000000  1.467566 -0.975591  0.000000 -0.000000
                          0.000000  0.171486  0.000000 -0.113998 -0.000000  0.000000 -0.000000  1.281626 -0.851984 -0.000000
                         -1.467566  0.975591  0.000000  0.000000 -0.000000  0.171486 -0.000000 -0.113998

  16.1   0     0.2164     0.000000  0.000000  0.000000  0.851984  1.281626  0.000000 -0.975591 -1.467566  0.000000  0.000000
                          0.000000 -0.113998  0.000000 -0.171486  0.000000 -0.000000 -0.000000 -0.851984 -1.281626  0.000000
                          0.975591  1.467566 -0.000000 -0.000000 -0.000000 -0.113998 -0.000000 -0.171486

  17.1   0     0.2581    -0.458999 -2.274930  7.743973 -0.000000 -0.000000  1.523779  0.000000  0.000000  1.175170 -0.115933
                         -0.000000 -0.000000  0.000000 -0.000000  0.458999  2.274930 -7.743973 -0.000000 -0.000000  1.523779
                          0.000000 -0.000000  1.175170  0.115933 -0.000000 -0.000000  0.000000 -0.000000

  18.1   0     0.3186    -0.310831 -1.973289  6.734790 -0.000000  0.000000  0.294984  0.000000  0.000000  1.851322  0.668998
                         -0.000000  0.000000  0.000000  0.000000  0.310831  1.973289 -6.734790  0.000000 -0.000000  0.294984
                         -0.000000  0.000000  1.851322 -0.668998 -0.000000 -0.000000  0.000000  0.000000


 HOMO      3.1    -0.180890 =      -4.9223eV
 LUMO      4.1     0.008602 =       0.2341eV
 LUMO-HOMO         0.189492 =       5.1563eV


 **********************************************************************************************************************************
 DATASETS  * FILE   NREC   LENGTH (MB)   RECORD NAMES
              1      19       30.10       500      610      700      900      950      970     1000      129      960     1100   
                                          VAR    BASINP    GEOM    SYMINP    ZMAT    AOBASIS   BASIS     P2S    ABASIS      S 
                                         1400     1410     1200     1210     1080     1600     1650     1300     1700   
                                           T        V       H0       H01     AOSYM     SMH    MOLCAS    ERIS     OPER   

              3       5       14.79       500      610      700     1000     2100   
                                          VAR    BASINP    GEOM     BASIS     RHF  

 PROGRAMS   *        TOTAL   RHF-SCF       INT      FILE
 CPU TIMES  *         0.36      0.13      0.15      0.01
 REAL TIME  *         0.51 SEC
 DISK USED  *        46.97 MB
 **********************************************************************************************************************************

 Dump information in style XML to orbitals.xml                                                                    

 Variables will not be exported.
 Molecular orbitals read from record     2100.3  Type=RHF/CANONICAL (state 1.1)
 Occupation numbers read from record     2100.3  Type=RHF/RHF (state 1.1)
 Orbital energies read from record       2100.3  Type=RHF/CANONICAL (state 1.1)
 Redundancy group numbers read from rec  2100.3  Type=RHF/RHF (state 1.1)

 **********************************************************************************************************************************

 RHF/cc-pVDZ energy=    -14.869231121669

         RHF-SCF
    -14.86923112
 **********************************************************************************************************************************
 Molpro calculation terminated
