
 Primary working directories    : /scr/yuriaoto/job.022414/molpro.J59fC2g2aZ
 Secondary working directories  : /scr/yuriaoto/job.022414/molpro.J59fC2g2aZ
 Wavefunction directory         : /scr/yuriaoto/job.022414/
 Main file repository           : /scr/yuriaoto/job.022414/molpro.J59fC2g2aZ/

 id        : yuriaoto

 Nodes             nprocs
 t-rex.ufabc.int.br    1

 Using customized tuning parameters: mindgm=8; mindgv=16; mindgc=1; mindgr=1; noblas=0; minvec=7
 default implementation of scratch files=df  


 Variables initialized (933), CPU time= 0.01 sec
 ***,
 memory,40,m
 gprint,orbital=15,basis
 gthresh,thrprint=0
 file,3,wfu.dat,new
 
 r = 5.0
 basis = cc-pVDZ
 
 nosym
 geom={Li1;Li2,Li1,r}
 
 {rhf
 wf,6,1,0
 }
 
 {uhf
 rotate,1.1,2.1,45
 rotate,3.1,4.1,45
 wf,6,1,0
 orbital,2100.3
 }
 
 {put,xml,orbitals.xml; nosort; novariables}
 
 Commands  initialized (760), CPU time= 0.01 sec, 617 directives.
 Default parameters read. Elapsed time= 0.04 sec

 Checking input...
 Passed
1


                                         ***  PROGRAM SYSTEM MOLPRO  ***
                                       Copyright, TTI GmbH Stuttgart, 2015
                                    Version 2019.2 linked Abr  7 2019 15:10:35


 **********************************************************************************************************************************
 LABEL *                                                                                 
  64 bit serial version                                                                  DATE: 21-Oct-19          TIME: 10:48:06  
 **********************************************************************************************************************************

 SHA1:             3a8a58c585c929645742fb5a1b7541a4ad1da699
 **********************************************************************************************************************************


 THRESHOLDS:

 ZERO    =  1.00D-12  ONEINT  =  1.00D-12  TWOINT  =  1.00D-11  PREFAC  =  1.00D-14  XXXXXX  =  1.00D-09  EORDER  =  1.00D-04
 ENERGY  =  0.00D+00  ETEST   =  0.00D+00  EDENS   =  0.00D+00  THRDEDEF=  1.00D-06  GRADIENT=  1.00D-02  STEP    =  1.00D-03
 ORBITAL =  1.00D-05  CIVEC   =  1.00D-05  COEFF   =  1.00D-04  PRINTCI =  5.00D-02  PUNCHCI =  9.90D+01  OPTGRAD =  3.00D-04
 OPTENERG=  1.00D-06  OPTSTEP =  3.00D-04  THRGRAD =  1.00D-10  COMPRESS=  1.00D-11  VARMIN  =  1.00D-07  VARMAX  =  1.00D-03
 THRDOUB =  0.00D+00  THRDIV  =  1.00D-05  THRRED  =  1.00D-07  THRPSP  =  1.00D+00  THRDC   =  1.00D-10  THRCS   =  1.00D-10
 THRNRM  =  1.00D-08  THREQ   =  0.00D+00  THRDE   =  1.00D+00  THRREF  =  1.00D-05  SPARFAC =  1.00D+00  THRDLP  =  1.00D-07
 THRDIA  =  1.00D-10  THRDLS  =  1.00D-07  THRGPS  =  0.00D+00  THRKEX  =  0.00D+00  THRDIS  =  2.00D-01  THRVAR  =  1.00D-10
 THRLOC  =  1.00D-06  THRGAP  =  1.00D-06  THRLOCT = -1.00D+00  THRGAPT = -1.00D+00  THRORB  =  1.00D-06  THRMLTP =  0.00D+00
 THRCPQCI=  1.00D-10  KEXTA   =  0.00D+00  THRCOARS=  0.00D+00  SYMTOL  =  1.00D-06  GRADTOL =  1.00D-06  THROVL  =  1.00D-08
 THRORTH =  1.00D-08  GRID    =  1.00D-06  GRIDMAX =  1.00D-03  DTMAX   =  0.00D+00  THROCCDE=  1.00D-01  THROCCDE=  1.00D-01
 THRPRINT=  0.00D+00


 Variable memory set to   40000000 words,  buffer space 



 Permanent file  3  wfu.dat  assigned.  Implementation=df  



 **********************************************************************************************************************************
 DATASETS  * FILE   NREC   LENGTH (MB)   RECORD NAMES
              3       1        0.03       500   
                                          VAR  

 PROGRAMS   *        TOTAL      FILE
 CPU TIMES  *         0.11      0.01
 REAL TIME  *         0.12 SEC
 DISK USED  *         0.09 MB
 **********************************************************************************************************************************
 SETTING R              =         5.00000000                                  
 SETTING BASIS          =    CC-PVDZ
 ZSYMEL=NOSYM



 Recomputing integrals since basis changed


 Using spherical harmonics

 Library entry LI     S cc-pVDZ              selected for orbital group  1
 Library entry LI     P cc-pVDZ              selected for orbital group  1
 Library entry LI     D cc-pVDZ              selected for orbital group  1


 PROGRAM * SEWARD (Integral evaluation for generally contracted gaussian basis sets)     Author: Roland Lindh, 1990

 Geometry written to block  1 of record 700

 Orientation using atomic masses  
 Molecule type: Linear
 Rotational constants:      20.8009354     20.8009354      0.0000000 GHz  (calculated with average atomic masses)

 Point group  C1  



 ATOMIC COORDINATES

 NR  ATOM    CHARGE       X              Y              Z

   1  LI1     3.00    0.000000000    0.000000000   -2.500000000
   2  LI2     3.00    0.000000000    0.000000000    2.500000000

 Bond lengths in Bohr (Angstrom)

 1-2  5.000000000
     ( 2.645886055)


 BASIS DATA

   Nr Sym  Nuc  Type         Exponents   Contraction coefficients

    1.1 A     1  1s        1469.000000     0.000766   -0.000120    0.000000
    2.1 A                   220.500000     0.005892   -0.000923    0.000000
    3.1 A                    50.260000     0.029671   -0.004689    0.000000
                             14.240000     0.109180   -0.017682    0.000000
                              4.581000     0.282789   -0.048902    0.000000
                              1.580000     0.453123   -0.096009    0.000000
                              0.564000     0.274774   -0.136380    0.000000
                              0.073450     0.009751    0.575102    0.000000
                              0.028050    -0.003180    0.517661    1.000000
    4.1 A     1  2px          1.534000     0.022784
                              0.274900     0.139107
                              0.073620     0.500375
                              0.024030     0.508474
    5.1 A     1  2py          1.534000     0.022784
                              0.274900     0.139107
                              0.073620     0.500375
                              0.024030     0.508474
    6.1 A     1  2pz          1.534000     0.022784
                              0.274900     0.139107
                              0.073620     0.500375
                              0.024030     0.508474
    7.1 A     1  2px          1.534000     0.000000
                              0.274900     0.000000
                              0.073620     0.000000
                              0.024030     1.000000
    8.1 A     1  2py          1.534000     0.000000
                              0.274900     0.000000
                              0.073620     0.000000
                              0.024030     1.000000
    9.1 A     1  2pz          1.534000     0.000000
                              0.274900     0.000000
                              0.073620     0.000000
                              0.024030     1.000000
   10.1 A     1  3d0          0.114400     1.000000
   11.1 A     1  3d2-         0.114400     1.000000
   12.1 A     1  3d1+         0.114400     1.000000
   13.1 A     1  3d2+         0.114400     1.000000
   14.1 A     1  3d1-         0.114400     1.000000
   15.1 A     2  1s        1469.000000     0.000766   -0.000120    0.000000
   16.1 A                   220.500000     0.005892   -0.000923    0.000000
   17.1 A                    50.260000     0.029671   -0.004689    0.000000
                             14.240000     0.109180   -0.017682    0.000000
                              4.581000     0.282789   -0.048902    0.000000
                              1.580000     0.453123   -0.096009    0.000000
                              0.564000     0.274774   -0.136380    0.000000
                              0.073450     0.009751    0.575102    0.000000
                              0.028050    -0.003180    0.517661    1.000000
   18.1 A     2  2px          1.534000     0.022784
                              0.274900     0.139107
                              0.073620     0.500375
                              0.024030     0.508474
   19.1 A     2  2py          1.534000     0.022784
                              0.274900     0.139107
                              0.073620     0.500375
                              0.024030     0.508474
   20.1 A     2  2pz          1.534000     0.022784
                              0.274900     0.139107
                              0.073620     0.500375
                              0.024030     0.508474
   21.1 A     2  2px          1.534000     0.000000
                              0.274900     0.000000
                              0.073620     0.000000
                              0.024030     1.000000
   22.1 A     2  2py          1.534000     0.000000
                              0.274900     0.000000
                              0.073620     0.000000
                              0.024030     1.000000
   23.1 A     2  2pz          1.534000     0.000000
                              0.274900     0.000000
                              0.073620     0.000000
                              0.024030     1.000000
   24.1 A     2  3d0          0.114400     1.000000
   25.1 A     2  3d2-         0.114400     1.000000
   26.1 A     2  3d1+         0.114400     1.000000
   27.1 A     2  3d2+         0.114400     1.000000
   28.1 A     2  3d1-         0.114400     1.000000

 NUCLEAR CHARGE:                    6
 NUMBER OF PRIMITIVE AOS:          54
 NUMBER OF SYMMETRY AOS:           52
 NUMBER OF CONTRACTIONS:           28   (   28A   )
 NUMBER OF CORE ORBITALS:           2   (    2A   )
 NUMBER OF VALENCE ORBITALS:        8   (    8A   )


 NUCLEAR REPULSION ENERGY    1.80000000

 EXTRA SYMMETRY OF AOS IN SYMMETRY 1:   1 1 1 2 3 1 2 3 1 1   4 2 5 3 1 1 1 2 3 1   2 3 1 1 4 2 5 3

 Eigenvalues of metric

         1 0.256E-02 0.901E-02 0.313E-01 0.586E-01 0.586E-01 0.995E-01 0.101E+00 0.135E+00


 Contracted 2-electron integrals neglected if value below      1.0D-11
 AO integral compression algorithm  1   Integral accuracy      1.0D-11

     0.262 MB (compressed) written to integral file ( 36.0%)


 NUMBER OF SORTED TWO-ELECTRON INTEGRALS:      82621.     BUFFER LENGTH:  32768
 NUMBER OF SEGMENTS:   1  SEGMENT LENGTH:      82621      RECORD LENGTH: 524288

 Memory used in sort:       0.64 MW

 SORT1 READ      119167. AND WROTE       19125. INTEGRALS IN      1 RECORDS. CPU TIME:     0.00 SEC, REAL TIME:     0.00 SEC
 SORT2 READ       19125. AND WROTE       82621. INTEGRALS IN      1 RECORDS. CPU TIME:     0.03 SEC, REAL TIME:     0.03 SEC

 FILE SIZES:   FILE 1:    30.2 MBYTE,  FILE 4:     4.2 MBYTE,   TOTAL:     34.5 MBYTE

 OPERATOR DM      FOR CENTER  0  COORDINATES:    0.000000    0.000000    0.000000


 **********************************************************************************************************************************
 DATASETS  * FILE   NREC   LENGTH (MB)   RECORD NAMES
              1      19       30.10       500      610      700      900      950      970     1000      129      960     1100   
                                          VAR    BASINP    GEOM    SYMINP    ZMAT    AOBASIS   BASIS     P2S    ABASIS      S 
                                         1400     1410     1200     1210     1080     1600     1650     1300     1700   
                                           T        V       H0       H01     AOSYM     SMH    MOLCAS    ERIS     OPER   

              3       4       12.28       500      610      700     1000   
                                          VAR    BASINP    GEOM     BASIS   

 PROGRAMS   *        TOTAL       INT      FILE
 CPU TIMES  *         0.28      0.17      0.01
 REAL TIME  *         0.43 SEC
 DISK USED  *        46.97 MB
 **********************************************************************************************************************************


 PROGRAM * RHF-SCF (CLOSED SHELL)       Authors: W. Meyer, H.-J. Werner


 NUMBER OF ELECTRONS:       3+    3-    SPACE SYMMETRY=1    SPIN SYMMETRY: Singlet 
 CONVERGENCE THRESHOLDS:    1.00E-05 (Density)    1.00E-07 (Energy)
 MAX. NUMBER OF ITERATIONS:       60
 INTERPOLATION TYPE:            DIIS
 INTERPOLATION STEPS:              2 (START)      1 (STEP)
 LEVEL SHIFTS:                  0.00 (CLOSED)  0.00 (OPEN) 



 Orbital guess generated from atomic densities. Full valence occupancy:    4

 Molecular orbital dump at record        2100.3

 Initial occupancy:   3

 ITERATION    DDIFF          GRAD             ENERGY        2-EL.EN.            DIPOLE MOMENTS         DIIS   ORB.
    1      0.000D+00      0.000D+00       -14.86794423     12.940541   -0.00000    0.00000   -0.00000    0    start
    2      0.000D+00      0.169D-02       -14.86901341     13.003377   -0.00000    0.00000   -0.00000    1    diag
    3      0.530D-02      0.608D-03       -14.86922512     13.035103   -0.00000   -0.00000   -0.00000    2    diag
    4      0.321D-02      0.817D-04       -14.86923102     13.036363   -0.00000   -0.00000   -0.00000    3    diag
    5      0.909D-03      0.113D-04       -14.86923112     13.036059   -0.00000   -0.00000   -0.00000    4    diag
    6      0.163D-03      0.136D-05       -14.86923112     13.036024   -0.00000   -0.00000   -0.00000    5    diag
    7      0.161D-04      0.202D-06       -14.86923112     13.036037   -0.00000   -0.00000   -0.00000    6    diag
    8      0.246D-05      0.238D-07       -14.86923112     13.036038   -0.00000   -0.00000   -0.00000    0    orth

 Final occupancy:   3

 !RHF STATE  1.1 Energy               -14.869231121669
 Nuclear energy                         1.80000000
 One-electron energy                  -23.18725017
 Two-electron energy                    6.51801905
 Virial quotient                       -0.99544568
 !RHF STATE  1.1 Dipole moment         -0.00000000    -0.00000000    -0.00000000
 Dipole moment /Debye                  -0.00000000    -0.00000000    -0.00000000

 MOLECULAR ORBITALS
 ==================

   Orb  Occ    Energy       Coefficients

                            1 1s      1 1s      1 1s      1 2px     1 2py     1 2pz     1 2px     1 2py     1 2pz     1 3d0  
                            1 3d2-    1 3d1+    1 3d2+    1 3d1-    2 1s      2 1s      2 1s      2 2px     2 2py     2 2pz  
                            2 2px     2 2py     2 2pz     2 3d0     2 3d2-    2 3d1+    2 3d2+    2 3d1- 

   1.1   2    -2.4475     0.707003  0.000611 -0.000700  0.000000  0.000000 -0.002219  0.000000  0.000000  0.001936  0.000365
                          0.000000  0.000000 -0.000000  0.000000  0.707003  0.000611 -0.000700  0.000000 -0.000000  0.002219
                         -0.000000 -0.000000 -0.001936  0.000365  0.000000  0.000000  0.000000  0.000000

   2.1   2    -2.4472     0.705444 -0.008558 -0.012212 -0.000000 -0.000000 -0.014689 -0.000000 -0.000000  0.002506 -0.003270
                          0.000000 -0.000000  0.000000 -0.000000 -0.705444  0.008558  0.012212 -0.000000  0.000000 -0.014689
                          0.000000  0.000000  0.002506  0.003270 -0.000000 -0.000000 -0.000000 -0.000000

   3.1   2    -0.1809    -0.053629  0.527865  0.000772  0.000000 -0.000000  0.175199 -0.000000  0.000000 -0.089212  0.006479
                          0.000000 -0.000000 -0.000000 -0.000000 -0.053629  0.527865  0.000772 -0.000000  0.000000 -0.175199
                          0.000000 -0.000000  0.089212  0.006479 -0.000000  0.000000  0.000000  0.000000

   4.1   0     0.0086     0.009288 -0.345925  1.138658 -0.000000 -0.000000  0.170074  0.000000  0.000000  0.840561  0.003430
                         -0.000000 -0.000000  0.000000  0.000000 -0.009288  0.345925 -1.138658 -0.000000  0.000000  0.170074
                         -0.000000 -0.000000  0.840561 -0.003430 -0.000000 -0.000000  0.000000 -0.000000

   5.1   0     0.0322     0.000000  0.000000  0.000000  0.192413  0.012147  0.000000  0.364596  0.023016  0.000000  0.000000
                         -0.000000 -0.003879 -0.000000 -0.000245  0.000000  0.000000 -0.000000  0.192413  0.012147 -0.000000
                          0.364596  0.023016  0.000000 -0.000000  0.000000  0.003879  0.000000  0.000245

   6.1   0     0.0322     0.000000  0.000000 -0.000000 -0.012147  0.192413  0.000000 -0.023016  0.364596 -0.000000 -0.000000
                         -0.000000  0.000245  0.000000 -0.003879 -0.000000 -0.000000  0.000000 -0.012147  0.192413  0.000000
                         -0.023016  0.364596  0.000000 -0.000000  0.000000 -0.000245  0.000000  0.003879

   7.1   0     0.0451     0.030738  0.260440 -0.677634 -0.000000  0.000000  0.177930 -0.000000  0.000000  0.742451  0.005609
                          0.000000 -0.000000 -0.000000 -0.000000  0.030738  0.260440 -0.677634 -0.000000  0.000000 -0.177930
                         -0.000000  0.000000 -0.742451  0.005609  0.000000 -0.000000 -0.000000  0.000000

   8.1   0     0.0672    -0.000000  0.000000 -0.000000  0.018955  0.002668 -0.000000  1.354593  0.190676  0.000000  0.000000
                          0.000000 -0.000280  0.000000 -0.000039 -0.000000 -0.000000  0.000000 -0.018955 -0.002668 -0.000000
                         -1.354593 -0.190676 -0.000000  0.000000 -0.000000 -0.000280 -0.000000 -0.000039

   9.1   0     0.0672     0.000000  0.000000 -0.000000  0.002668 -0.018955  0.000000  0.190676 -1.354593 -0.000000 -0.000000
                          0.000000 -0.000039  0.000000  0.000280  0.000000 -0.000000  0.000000 -0.002668  0.018955  0.000000
                         -0.190676  1.354593 -0.000000 -0.000000 -0.000000 -0.000039  0.000000  0.000280

  10.1   0     0.0843    -0.123522 -0.007401  5.760468 -0.000000 -0.000000 -0.059482 -0.000000 -0.000000  2.697828  0.092707
                          0.000000  0.000000 -0.000000  0.000000  0.123522  0.007401 -5.760468 -0.000000 -0.000000 -0.059482
                         -0.000000  0.000000  2.697828 -0.092707  0.000000  0.000000 -0.000000  0.000000

  11.1   0     0.1419    -0.243163 -1.341875  1.168884 -0.000000  0.000000 -0.920720  0.000000 -0.000000  1.420595  0.051783
                         -0.000000  0.000000  0.000000  0.000000 -0.243163 -1.341875  1.168884 -0.000000  0.000000  0.920720
                          0.000000 -0.000000 -1.420595  0.051783 -0.000000  0.000000  0.000000 -0.000000

  12.1   0     0.1618     0.000000  0.000000  0.000000  0.063544  1.350334  0.000000 -0.058228 -1.237368 -0.000000  0.000000
                         -0.000000  0.000712  0.000000  0.015133  0.000000  0.000000 -0.000000  0.063544  1.350334 -0.000000
                         -0.058228 -1.237368  0.000000 -0.000000 -0.000000 -0.000712  0.000000 -0.015133

  13.1   0     0.1618    -0.000000 -0.000000  0.000000  1.350334 -0.063544 -0.000000 -1.237368  0.058228  0.000000  0.000000
                         -0.000000  0.015133 -0.000000 -0.000712 -0.000000 -0.000000  0.000000  1.350334 -0.063544  0.000000
                         -1.237368  0.058228 -0.000000  0.000000 -0.000000 -0.015133 -0.000000  0.000712

  14.1   0     0.1763    -0.352695 -2.066095  2.002845 -0.000000 -0.000000  0.958808  0.000000  0.000000 -0.788264 -0.083467
                         -0.000000  0.000000  0.000000 -0.000000 -0.352695 -2.066095  2.002845 -0.000000 -0.000000 -0.958808
                          0.000000  0.000000  0.788264 -0.083467 -0.000000  0.000000  0.000000  0.000000

  15.1   0     0.2164     0.000000  0.000000 -0.000000 -1.281626  0.851984 -0.000000  1.467566 -0.975591  0.000000 -0.000000
                          0.000000  0.171486  0.000000 -0.113998 -0.000000  0.000000 -0.000000  1.281626 -0.851984 -0.000000
                         -1.467566  0.975591  0.000000  0.000000 -0.000000  0.171486 -0.000000 -0.113998

  16.1   0     0.2164     0.000000  0.000000  0.000000  0.851984  1.281626  0.000000 -0.975591 -1.467566  0.000000  0.000000
                          0.000000 -0.113998  0.000000 -0.171486  0.000000 -0.000000 -0.000000 -0.851984 -1.281626  0.000000
                          0.975591  1.467566 -0.000000 -0.000000 -0.000000 -0.113998 -0.000000 -0.171486

  17.1   0     0.2581    -0.458999 -2.274930  7.743973 -0.000000 -0.000000  1.523779  0.000000  0.000000  1.175170 -0.115933
                         -0.000000 -0.000000  0.000000 -0.000000  0.458999  2.274930 -7.743973 -0.000000 -0.000000  1.523779
                          0.000000 -0.000000  1.175170  0.115933 -0.000000 -0.000000  0.000000 -0.000000

  18.1   0     0.3186    -0.310831 -1.973289  6.734790 -0.000000  0.000000  0.294984  0.000000  0.000000  1.851322  0.668998
                         -0.000000  0.000000  0.000000  0.000000  0.310831  1.973289 -6.734790  0.000000 -0.000000  0.294984
                         -0.000000  0.000000  1.851322 -0.668998 -0.000000 -0.000000  0.000000  0.000000


 HOMO      3.1    -0.180890 =      -4.9223eV
 LUMO      4.1     0.008602 =       0.2341eV
 LUMO-HOMO         0.189492 =       5.1563eV


 **********************************************************************************************************************************
 DATASETS  * FILE   NREC   LENGTH (MB)   RECORD NAMES
              1      19       30.10       500      610      700      900      950      970     1000      129      960     1100   
                                          VAR    BASINP    GEOM    SYMINP    ZMAT    AOBASIS   BASIS     P2S    ABASIS      S 
                                         1400     1410     1200     1210     1080     1600     1650     1300     1700   
                                           T        V       H0       H01     AOSYM     SMH    MOLCAS    ERIS     OPER   

              3       5       14.79       500      610      700     1000     2100   
                                          VAR    BASINP    GEOM     BASIS     RHF  

 PROGRAMS   *        TOTAL   RHF-SCF       INT      FILE
 CPU TIMES  *         0.41      0.13      0.17      0.01
 REAL TIME  *         0.60 SEC
 DISK USED  *        46.97 MB
 **********************************************************************************************************************************


 PROGRAM * UHF-SCF       Authors: W. Meyer, H.-J. Werner


 NUMBER OF ELECTRONS:       3+    3-    SPACE SYMMETRY=1    SPIN SYMMETRY: Singlet 
 CONVERGENCE THRESHOLDS:    1.00E-05 (Density)    1.00E-07 (Energy)
 MAX. NUMBER OF ITERATIONS:       60
 INTERPOLATION TYPE:            DIIS
 INTERPOLATION STEPS:              2 (START)      1 (STEP)
 LEVEL SHIFTS:                 -0.20 (ALPHA)  -0.20 (BETA) 



 Molecular orbitals read from record     2100.3  Type=RHF/CANONICAL (state 1.1)

 Molecular orbital dump at record        2100.3

 ROTATION OF BETA  ORBITALS   1.1    2.1       45.00 DEGREES
 ROTATION OF BETA  ORBITALS   3.1    4.1       45.00 DEGREES

 Initial alpha occupation   3
 Initial beta  occupation   3

 ITERATION    DDIFF          GRAD             ENERGY        2-EL.EN.            DIPOLE MOMENTS         DIIS
    1      0.000D+00      0.000D+00       -14.83684415     12.512285   -0.00000   -0.00000   -2.44747    0
    2      0.246D-01      0.194D-02       -14.84429331     12.625152   -0.00000   -0.00000   -2.31382    1
    3      0.411D-01      0.171D-02       -14.85651712     12.827146   -0.00000   -0.00000   -1.99306    2
    4      0.291D-01      0.131D-02       -14.86573919     12.957716   -0.00000   -0.00000   -1.45773    3
    5      0.111D-01      0.722D-03       -14.86871312     12.936651   -0.00000    0.00000   -0.89006    4
    6      0.251D-02      0.237D-03       -14.86902751     12.926816   -0.00000    0.00000   -0.75483    5
    7      0.142D-02      0.208D-03       -14.86923463     12.932220    0.00000    0.00000   -0.60428    6
    8      0.211D-02      0.173D-03       -14.86941370     12.946970    0.00000    0.00000   -0.51504    7
    9      0.273D-02      0.133D-03       -14.86965327     12.958024    0.00000   -0.00000   -0.26436    8
   10      0.248D-02      0.782D-04       -14.86975870     12.971854    0.00000   -0.00000   -0.07509    9
   11      0.843D-03      0.261D-04       -14.86976823     12.974099    0.00000    0.00000   -0.00627    9
   12      0.133D-03      0.111D-04       -14.86976876     12.974533    0.00000    0.00000   -0.01045    9
   13      0.955D-04      0.511D-05       -14.86976892     12.974847    0.00000    0.00000   -0.00215    9
   14      0.523D-04      0.296D-05       -14.86976895     12.974873    0.00000    0.00000   -0.00432    9
   15      0.112D-04      0.185D-05       -14.86976896     12.974825    0.00000    0.00000   -0.00336    9
   16      0.139D-04      0.157D-05       -14.86976898     12.974694    0.00000    0.00000   -0.00324    8
   17      0.407D-04      0.148D-05       -14.86976903     12.974355    0.00000    0.00000   -0.00274    7
   18      0.436D-04      0.946D-06       -14.86976905     12.974115    0.00000    0.00000   -0.00213    7
   19      0.136D-04      0.745D-06       -14.86976905     12.974063    0.00000    0.00000   -0.00182    7
   20      0.125D-04      0.578D-06       -14.86976906     12.974025    0.00000    0.00000   -0.00119    8
   21      0.705D-05      0.400D-06       -14.86976906     12.974048    0.00000    0.00000   -0.00056    9
   22      0.500D-05      0.215D-06       -14.86976906     12.974072    0.00000    0.00000   -0.00019    9

 Final alpha occupancy:   3
 Final beta  occupancy:   3

 !UHF STATE  1.1 Energy               -14.869769058011
 Nuclear energy                         1.80000000
 One-electron energy                  -23.15680502
 Two-electron energy                    6.48703596
 Virial quotient                       -0.99532720
 !UHF STATE  1.1 Dipole moment          0.00000000     0.00000000    -0.00019088
 Dipole moment /Debye                   0.00000000     0.00000000    -0.00048514

 ELECTRON ORBITALS FOR POSITIVE SPIN
 ===================================

   Orb  Occ    Energy       Coefficients

                            1 1s      1 1s      1 1s      1 2px     1 2py     1 2pz     1 2px     1 2py     1 2pz     1 3d0  
                            1 3d2-    1 3d1+    1 3d2+    1 3d1-    2 1s      2 1s      2 1s      2 2px     2 2py     2 2pz  
                            2 2px     2 2py     2 2pz     2 3d0     2 3d2-    2 3d1+    2 3d2+    2 3d1- 

   1.1   +    -2.4553     0.998851 -0.004179 -0.008340  0.000000  0.000000 -0.008512 -0.000000 -0.000000  0.001485 -0.001440
                         -0.000000  0.000000 -0.000000  0.000000  0.026886  0.003694  0.008311 -0.000000 -0.000000 -0.006051
                          0.000000  0.000000 -0.000540  0.001798 -0.000000  0.000000 -0.000000  0.000000

   2.1   +    -2.4481     0.025692 -0.004788 -0.008248  0.000000 -0.000000 -0.007340  0.000000  0.000000 -0.000022 -0.002383
                         -0.000000 -0.000000 -0.000000 -0.000000 -0.998757  0.003372  0.009410  0.000000  0.000000 -0.009546
                          0.000000 -0.000000  0.002037  0.001518 -0.000000 -0.000000 -0.000000 -0.000000

   3.1   +    -0.1880    -0.040331  0.735438  0.024995 -0.000000 -0.000000  0.103283 -0.000000  0.000000 -0.052560 -0.000136
                          0.000000 -0.000000  0.000000 -0.000000 -0.054246  0.343870 -0.068231 -0.000000 -0.000000 -0.210495
                          0.000000  0.000000  0.117208  0.015146 -0.000000  0.000000 -0.000000  0.000000

   4.1   0     0.0113    -0.017505 -0.292143  1.213011 -0.000000 -0.000000  0.273244 -0.000000 -0.000000  0.877559  0.003190
                         -0.000000 -0.000000 -0.000000 -0.000000 -0.037321  0.343294 -1.142437 -0.000000 -0.000000  0.057653
                         -0.000000 -0.000000  0.837953 -0.004979 -0.000000  0.000000 -0.000000  0.000000

   5.1   0     0.0300     0.000000  0.000000 -0.000000  0.195093 -0.188857 -0.000000  0.339133 -0.328293 -0.000000 -0.000000
                         -0.000000 -0.003822 -0.000000  0.003699  0.000000 -0.000000  0.000000  0.101198 -0.097964 -0.000000
                          0.159312 -0.154220 -0.000000  0.000000 -0.000000 -0.001616 -0.000000  0.001564

   6.1   0     0.0300    -0.000000 -0.000000  0.000000  0.188857  0.195093 -0.000000  0.328293  0.339133  0.000000  0.000000
                         -0.000000 -0.003699  0.000000 -0.003822 -0.000000  0.000000 -0.000000  0.097964  0.101198  0.000000
                          0.154220  0.159312  0.000000 -0.000000 -0.000000 -0.001564  0.000000 -0.001616

   7.1   0     0.0456     0.034029  0.302049 -0.959733  0.000000  0.000000  0.179428  0.000000  0.000000  0.552329 -0.003465
                          0.000000 -0.000000  0.000000 -0.000000  0.030900  0.223317 -0.404394 -0.000000 -0.000000 -0.192169
                          0.000000  0.000000 -0.894250  0.019414 -0.000000  0.000000 -0.000000  0.000000

   8.1   0     0.0675     0.000000 -0.000000 -0.000000  0.026060  0.039426  0.000000  0.690596  1.044785 -0.000000 -0.000000
                          0.000000  0.000021  0.000000  0.000032 -0.000000 -0.000000  0.000000  0.001650  0.002497 -0.000000
                         -0.800299 -1.210752 -0.000000  0.000000  0.000000  0.003028 -0.000000  0.004581

   9.1   0     0.0675    -0.000000  0.000000  0.000000  0.039426 -0.026060 -0.000000  1.044785 -0.690596  0.000000  0.000000
                         -0.000000  0.000032 -0.000000 -0.000021  0.000000  0.000000 -0.000000  0.002497 -0.001650  0.000000
                         -1.210752  0.800299  0.000000 -0.000000  0.000000  0.004581  0.000000 -0.003028

  10.1   0     0.0849    -0.080750  0.136613  5.491356 -0.000000 -0.000000 -0.139652  0.000000  0.000000  2.743208  0.091707
                          0.000000  0.000000  0.000000  0.000000  0.163300  0.150626 -5.901901  0.000000  0.000000  0.025848
                         -0.000000 -0.000000  2.597017 -0.086140  0.000000  0.000000  0.000000  0.000000

  11.1   0     0.1390    -0.255209 -1.404901  1.383750  0.000000  0.000000 -0.909549 -0.000000 -0.000000  1.487883  0.054425
                         -0.000000  0.000000 -0.000000  0.000000 -0.236163 -1.318336  0.985414  0.000000  0.000000  0.893454
                         -0.000000 -0.000000 -1.337008  0.034476  0.000000 -0.000000  0.000000 -0.000000

  12.1   0     0.1580     0.000000  0.000000 -0.000000 -1.187431  0.978308  0.000000  1.166418 -0.960995 -0.000000 -0.000000
                          0.000000 -0.002504  0.000000  0.002063  0.000000  0.000000 -0.000000 -0.869396  0.716283 -0.000000
                          0.729755 -0.601235  0.000000 -0.000000  0.000000  0.030574  0.000000 -0.025189

  13.1   0     0.1580    -0.000000 -0.000000  0.000000 -0.978308 -1.187431 -0.000000  0.960995  1.166418  0.000000  0.000000
                          0.000000 -0.002063 -0.000000 -0.002504 -0.000000 -0.000000  0.000000 -0.716283 -0.869396  0.000000
                          0.601235  0.729755 -0.000000  0.000000  0.000000  0.025189 -0.000000  0.030574

  14.1   0     0.1765    -0.398725 -2.225688  3.058057 -0.000000 -0.000000  1.051041  0.000000  0.000000 -0.508222 -0.070793
                         -0.000000  0.000000 -0.000000  0.000000 -0.296572 -1.851075  0.894270  0.000000  0.000000 -0.879578
                         -0.000000 -0.000000  1.107351 -0.087504  0.000000  0.000000  0.000000  0.000000

  15.1   0     0.2159    -0.000000 -0.000000  0.000000 -0.588352  1.230455  0.000000  0.695106 -1.453715  0.000000  0.000000
                          0.000000  0.089180 -0.000000 -0.186506  0.000000  0.000000 -0.000000  0.737342 -1.542045 -0.000000
                         -0.816081  1.706718  0.000000 -0.000000 -0.000000  0.077586 -0.000000 -0.162260

  16.1   0     0.2159     0.000000  0.000000 -0.000000 -1.230455 -0.588352 -0.000000  1.453715  0.695106 -0.000000 -0.000000
                         -0.000000  0.186506 -0.000000  0.089180 -0.000000 -0.000000  0.000000  1.542045  0.737342  0.000000
                         -1.706718 -0.816081 -0.000000  0.000000 -0.000000  0.162260  0.000000  0.077586

  17.1   0     0.2584    -0.427951 -2.097444  7.552346 -0.000000 -0.000000  1.470915 -0.000000  0.000000  1.198319 -0.111458
                         -0.000000  0.000000 -0.000000  0.000000  0.478845  2.407490 -7.828565 -0.000000  0.000000  1.603774
                          0.000000 -0.000000  1.106555  0.110533  0.000000 -0.000000  0.000000 -0.000000

  18.1   0     0.3149     0.000000  0.000000 -0.000000  0.000000 -0.000000 -0.000000 -0.000000  0.000000 -0.000000 -0.000000
                          0.689294 -0.000000  0.000181 -0.000000 -0.000000 -0.000000  0.000000  0.000000  0.000000 -0.000000
                         -0.000000 -0.000000 -0.000000  0.000000  0.578069  0.000000  0.000152  0.000000

 ELECTRON ORBITALS FOR NEGATIVE SPIN
 ===================================

   Orb  Occ    Energy       Coefficients

                            1 1s      1 1s      1 1s      1 2px     1 2py     1 2pz     1 2px     1 2py     1 2pz     1 3d0  
                            1 3d2-    1 3d1+    1 3d2+    1 3d1-    2 1s      2 1s      2 1s      2 2px     2 2py     2 2pz  
                            2 2px     2 2py     2 2pz     2 3d0     2 3d2-    2 3d1+    2 3d2+    2 3d1- 

   1.1   -    -2.4553    -0.026925 -0.003693 -0.008311  0.000000 -0.000000 -0.006049  0.000000  0.000000 -0.000540 -0.001797
                          0.000000 -0.000000  0.000000 -0.000000 -0.998850  0.004178  0.008339  0.000000  0.000000 -0.008511
                          0.000000 -0.000000  0.001485  0.001440 -0.000000  0.000000 -0.000000  0.000000

   2.1   -    -2.4481     0.998755 -0.003373 -0.009410  0.000000  0.000000 -0.009548 -0.000000 -0.000000  0.002038 -0.001518
                         -0.000000  0.000000 -0.000000  0.000000 -0.025731  0.004789  0.008248  0.000000 -0.000000 -0.007341
                          0.000000  0.000000 -0.000022  0.002383  0.000000  0.000000  0.000000  0.000000

   3.1   -    -0.1880    -0.054243  0.343864 -0.068208  0.000000  0.000000  0.210446 -0.000000 -0.000000 -0.117177  0.015137
                         -0.000000  0.000000 -0.000000  0.000000 -0.040332  0.735427  0.025019  0.000000  0.000000 -0.103206
                         -0.000000 -0.000000  0.052532 -0.000139  0.000000 -0.000000  0.000000 -0.000000

   4.1   0     0.0113     0.037329 -0.343282  1.142248 -0.000000 -0.000000  0.057701 -0.000000 -0.000000  0.837967  0.004978
                          0.000000 -0.000000  0.000000 -0.000000  0.017510  0.292177 -1.213002 -0.000000 -0.000000  0.273216
                          0.000000 -0.000000  0.877437 -0.003187  0.000000  0.000000  0.000000  0.000000

   5.1   0     0.0300    -0.000000  0.000000 -0.000000  0.075042 -0.119199 -0.000000  0.118166 -0.187699 -0.000000 -0.000000
                          0.000000  0.001196  0.000000 -0.001899 -0.000000 -0.000000  0.000000  0.144651 -0.229769 -0.000000
                          0.251442 -0.399401 -0.000000  0.000000  0.000000  0.002835  0.000000 -0.004503

   6.1   0     0.0300     0.000000 -0.000000  0.000000  0.119199  0.075042  0.000000  0.187699  0.118166  0.000000  0.000000
                          0.000000  0.001899 -0.000000  0.001196  0.000000  0.000000 -0.000000  0.229769  0.144651  0.000000
                          0.399401  0.251442  0.000000 -0.000000  0.000000  0.004503 -0.000000  0.002835

   7.1   0     0.0456     0.030884  0.223335 -0.404444  0.000000  0.000000  0.192156 -0.000000 -0.000000  0.894198  0.019406
                          0.000000  0.000000  0.000000  0.000000  0.034018  0.301991 -0.959587 -0.000000 -0.000000 -0.179442
                         -0.000000 -0.000000 -0.552447 -0.003465 -0.000000 -0.000000  0.000000 -0.000000

   8.1   0     0.0675    -0.000000 -0.000000  0.000000 -0.002858 -0.000885  0.000000  1.386391  0.429255  0.000000  0.000000
                          0.000000  0.005240 -0.000000  0.001622  0.000000 -0.000000 -0.000000 -0.045164 -0.013984  0.000000
                         -1.196380 -0.370424  0.000000 -0.000000 -0.000000  0.000038 -0.000000  0.000012

   9.1   0     0.0675    -0.000000 -0.000000  0.000000  0.000885 -0.002858  0.000000 -0.429255  1.386391  0.000000  0.000000
                         -0.000000 -0.001622 -0.000000  0.005240  0.000000 -0.000000 -0.000000  0.013984 -0.045164 -0.000000
                          0.370424 -1.196380  0.000000 -0.000000 -0.000000 -0.000012  0.000000  0.000038

  10.1   0     0.0849    -0.163296 -0.150616  5.901895  0.000000  0.000000  0.025772 -0.000000 -0.000000  2.597106  0.086144
                         -0.000000 -0.000000 -0.000000 -0.000000  0.080751 -0.136598 -5.491371 -0.000000 -0.000000 -0.139592
                          0.000000  0.000000  2.743168 -0.091704 -0.000000 -0.000000 -0.000000 -0.000000

  11.1   0     0.1390    -0.236162 -1.318385  0.985268 -0.000000 -0.000000 -0.893480  0.000000  0.000000  1.336921  0.034483
                         -0.000000 -0.000000 -0.000000 -0.000000 -0.255212 -1.404928  1.383948 -0.000000 -0.000000  0.909558
                          0.000000  0.000000 -1.487947  0.054434  0.000000  0.000000  0.000000  0.000000

  12.1   0     0.1580     0.000000  0.000000 -0.000000 -0.922353 -0.646828  0.000000  0.774221  0.542946 -0.000000 -0.000000
                         -0.000000 -0.032421  0.000000 -0.022736  0.000000  0.000000 -0.000000 -1.259604 -0.883335 -0.000000
                          1.237300  0.867694  0.000000 -0.000000 -0.000000  0.002658  0.000000  0.001864

  13.1   0     0.1580    -0.000000 -0.000000  0.000000 -0.646828  0.922353 -0.000000  0.542946 -0.774221  0.000000  0.000000
                         -0.000000 -0.022736 -0.000000  0.032421 -0.000000 -0.000000  0.000000 -0.883335  1.259604  0.000000
                          0.867694 -1.237300 -0.000000  0.000000 -0.000000  0.001864 -0.000000 -0.002658

  14.1   0     0.1765    -0.296600 -1.851179  0.894790  0.000000  0.000000  0.879657 -0.000000  0.000000 -1.107242 -0.087513
                          0.000000  0.000000  0.000000  0.000000 -0.398703 -2.225581  3.057564  0.000000  0.000000 -1.050980
                         -0.000000 -0.000000  0.508355 -0.070788 -0.000000  0.000000 -0.000000  0.000000

  15.1   0     0.2159     0.000000  0.000000 -0.000000 -1.404417  0.974174  0.000000  1.554413 -1.078218 -0.000000 -0.000000
                         -0.000000  0.147800 -0.000000 -0.102521 -0.000000 -0.000000  0.000000  1.120723 -0.777389 -0.000000
                         -1.324067  0.918439 -0.000000  0.000000 -0.000000  0.169857  0.000000 -0.117821

  16.1   0     0.2159     0.000000  0.000000 -0.000000  0.974174  1.404417  0.000000 -1.078218 -1.554413 -0.000000 -0.000000
                          0.000000 -0.102521 -0.000000 -0.147800 -0.000000 -0.000000  0.000000 -0.777389 -1.120723 -0.000000
                          0.918439  1.324067 -0.000000  0.000000  0.000000 -0.117821  0.000000 -0.169857

  17.1   0     0.2584    -0.478834 -2.407415  7.828610  0.000000  0.000000  1.603722 -0.000000 -0.000000  1.106639 -0.110533
                         -0.000000  0.000000 -0.000000  0.000000  0.427978  2.097577 -7.552587 -0.000000 -0.000000  1.470962
                          0.000000  0.000000  1.198329  0.111451 -0.000000  0.000000 -0.000000 -0.000000

  18.1   0     0.3149    -0.000000 -0.000000  0.000000 -0.000000 -0.000000  0.000000  0.000000  0.000000  0.000000  0.000000
                          0.578105  0.000000  0.000680  0.000000  0.000000  0.000000 -0.000000 -0.000000 -0.000000  0.000000
                          0.000000  0.000000  0.000000 -0.000000  0.689261 -0.000000  0.000811 -0.000000


 HOMO     -3.1    -0.187971 =      -5.1149eV
 LUMO     -4.1     0.011342 =       0.3086eV
 LUMO-HOMO         0.199312 =       5.4236eV

 EXPECTATION VALUE OF S**2:             0.21686272

 NATURAL SPIN ORBITALS
 =====================

  Orbital  Occupation    Energy     Coefficients
    1.1     0.46568    -0.07560     1 1s   -0.01581     1 1s    0.97029     1 1s    0.12168     1 2pz  -0.04370     1 2pz   0.03344
                                    1 3d0  -0.01705     2 1s   -0.05426     2 1s   -0.18414     2 1s   -0.15322     2 2pz  -0.27238
                                    2 2pz   0.15716     2 3d0   0.02799
    2.1     0.00068    -1.09409     1 1s    0.42642     1 1s   -0.72733     1 1s    0.82183     1 2pz   0.09644     1 2pz  -0.21288
                                    1 3d0  -0.38969     2 1s   -0.57208     2 1s   -0.71941     2 1s    0.83937     2 2pz  -0.11297
                                    2 2pz   0.21483     2 3d0  -0.38585
    3.1     0.00038    -1.08722     1 1s    0.71428     1 1s    0.66394     1 1s    0.33535     1 2pz   1.74036     1 2pz  -1.16736
                                    1 3d0   0.59313     2 1s    0.28525     2 1s   -0.66350     2 1s   -0.33519     2 2pz   1.74143
                                    2 2pz  -1.16849     2 3d0  -0.59271
    4.1     0.00000     0.38092     1 1s   -1.15051     1 1s   -5.46152     1 1s    7.81319     1 2px  -0.00053     1 2py   0.00037
                                    1 2pz  -1.72505     1 2px   0.00029     1 2py  -0.00020     1 2pz   2.74455     1 3d0  -0.08780
                                    1 3d1+ -0.00006     1 3d1-  0.00005     2 1s    0.47234     2 1s    2.28941     2 1s   -4.87441
                                    2 2px   0.00010     2 2py  -0.00007     2 2pz  -0.79173     2 2px  -0.00003     2 2py   0.00002
                                    2 2pz   1.35381     2 3d0   1.02311     2 3d1+ -0.00011     2 3d1-  0.00007
    5.1     0.00000     0.27855     1 1s   -0.37504     1 1s   -1.86838     1 1s    3.57092     1 2px   0.00126     1 2py  -0.00398
                                    1 2pz  -2.31704     1 2px  -0.00071     1 2py   0.00216     1 2pz   3.20609     1 3d0  -0.01579
                                    1 3d1+  0.00015     1 3d1- -0.00048     2 1s    0.54088     2 1s    2.73287     2 1s   -4.74059
                                    2 2px  -0.00024     2 2py   0.00077     2 2pz  -1.26053     2 2px   0.00007     2 2py  -0.00018
                                    2 2pz   1.36076     2 3d0  -0.15561     2 3d1+  0.00025     2 3d1- -0.00079
    6.1     0.00000     0.18643     1 1s    0.07056     1 1s    0.33937     1 1s   -1.91616     1 2px   1.28326     1 2py   1.63096
                                    1 2pz  -0.31457     1 2px  -0.69819     1 2py  -0.88577     1 2pz  -0.43182     1 3d0   0.07994
                                    1 3d1+  0.15508     1 3d1-  0.19729     2 1s   -0.16695     2 1s   -0.78396     2 1s    2.34988
                                    2 2px  -0.24931     2 2py  -0.31699     2 2pz  -0.08726     2 2px   0.05825     2 2py   0.07338
                                    2 2pz  -0.67413     2 3d0   0.07048     2 3d1+  0.25517     2 3d1-  0.32451
    7.1     0.00000     0.09855     1 1s    0.00002     1 1s    0.00011     1 1s   -0.00068     1 2px  -1.16224     1 2py   0.00328
                                    1 2pz  -0.00015     1 2px   2.27999     1 2py  -0.00178     1 2pz  -0.00011     1 3d0   0.00003
                                    1 3d1+  0.05170     1 3d1-  0.00040     2 1s   -0.00006     2 1s   -0.00026     2 1s    0.00082
                                    2 2px   0.09646     2 2py  -0.00064     2 2pz  -0.00005     2 2px  -0.72749     2 2py   0.00015
                                    2 2pz  -0.00024     2 3d0   0.00002     2 3d1+ -0.02474     2 3d1-  0.00065
    8.1     0.00000     0.09867     1 2px  -0.00001     1 2py  -1.16022     1 2px  -0.00000     1 2py   2.27821     1 3d2-  0.02957
                                    1 3d1+ -0.00005     1 3d2+  0.00014     1 3d1-  0.05185     2 2px   0.00002     2 2py   0.09613
                                    2 2px  -0.00000     2 2py  -0.72712     2 3d2- -0.00359     2 3d1+ -0.00002     2 3d2+ -0.00002
                                    2 3d1- -0.02444
    9.1     0.00000     0.35683     1 2px  -0.05461     1 2py   0.00708     1 2px  -0.01097     1 2py   0.00091     1 3d2-  0.00236
                                    1 3d1+ -0.26694     1 3d2+  0.99900     1 3d1-  0.03264     2 2px   0.08978     2 2py  -0.01149
                                    2 2px  -0.00512     2 2py   0.00082     2 3d2- -0.00029     2 3d1+ -0.08641     2 3d2+ -0.12130
                                    2 3d1-  0.01083
   10.1     0.00000     0.38967     1 2px   0.06353     1 2py   0.25361     1 2px   0.01260     1 2py   0.05140     1 3d2- -0.00062
                                    1 3d1+  0.31041     1 3d2+  0.02826     1 3d1-  1.22770     2 2px  -0.10524     2 2py  -0.42090
                                    2 2px   0.00677     2 2py   0.02428     2 3d2-  0.00007     2 3d1+  0.10016     2 3d2+ -0.00343
                                    2 3d1-  0.40150
   11.1     0.00000     0.22525     1 2px  -0.00195     1 2py  -0.50299     1 2px   0.02381     1 2py  -0.16641     1 3d2- -0.00001
                                    1 3d1+  0.00447     1 3d2+  0.00153     1 3d1- -0.52306     2 2px   0.12355     2 2py   1.41842
                                    2 2px  -0.12229     2 2py  -0.09934     2 3d2-  0.00001     2 3d1+  0.04994     2 3d2+ -0.00019
                                    2 3d1- -0.83796
   12.1     0.00000     0.10681     1 2px   0.17941     1 2py   0.15883     1 2px   0.35650     1 2py  -0.44570     1 3d2- -0.00001
                                    1 3d1+  0.22465     1 3d1-  0.11928     2 2px  -0.50470     2 2py  -1.18140     2 2px  -0.65700
                                    2 2py   1.59754     2 3d2-  0.00007     2 3d1+  0.19728     2 3d1-  0.04573
   13.1     0.00000     0.26618     1 2px   0.08053     1 2py   0.02329     1 2px   0.43388     1 2py   0.16953     1 3d2- -0.00001
                                    1 3d1+  0.10864     1 3d2+ -0.00000     1 3d1-  0.03179     2 2px   1.17279     2 2py   0.61217
                                    2 2px  -1.70704     2 2py  -0.74733     2 3d2-  0.00010     2 3d1+  0.73759     2 3d2+  0.00000
                                    2 3d1-  0.34315
   14.1     0.00000     0.35533     1 2px  -0.00293     1 2py   0.00022     1 2px   0.00195     1 2py  -0.00059     1 3d2- -0.12414
                                    1 3d1+ -0.00276     1 3d2+ -0.00003     1 3d1-  0.00017     2 2px   0.01030     2 2py  -0.00201
                                    2 2px  -0.00850     2 2py   0.00236     2 3d2-  1.02240     2 3d1+ -0.00481     2 3d2+  0.00021
                                    2 3d1- -0.00014
   15.1     0.00000     0.35533     1 2px   0.00000     1 2px  -0.00000     1 2py   0.00000     1 3d2-  0.00003     1 3d1+  0.00000
                                    1 3d2+ -0.12414     2 2px  -0.00000     2 2py   0.00000     2 2px   0.00000     2 2py  -0.00000
                                    2 3d2- -0.00021     2 3d1+ -0.00000     2 3d2+  1.02242     2 3d1-  0.00000
   16.1    -0.00000     0.31434     1 2px  -0.56468     1 2py   0.04084     1 2px   0.39297     1 2py  -0.11597     1 3d2-  0.00064
                                    1 3d1+ -0.52974     1 3d2+  0.00000     1 3d1-  0.03219     2 2px   2.01946     2 2py  -0.39561
                                    2 2px  -1.69821     2 2py   0.46477     2 3d2- -0.00526     2 3d1+ -0.91172     2 3d2+ -0.00000
                                    2 3d1- -0.03654
   17.1    -0.00000     0.26401     1 2px  -0.06662     1 2py   0.02973     1 2px   0.05385     1 2py   0.17895     1 3d2-  0.00001
                                    1 3d1+ -0.04844     1 3d1-  0.02918     2 2px  -0.47792     2 2py   1.15345     2 2px   0.17858
                                    2 2py  -1.07265     2 3d2- -0.00006     2 3d1+ -0.49039     2 3d2+ -0.00000     2 3d1-  0.64839
   18.1    -0.00000     0.16400     1 2px  -0.02494     1 2py   0.28281     1 2px  -0.25643     1 2py  -0.48821     1 3d2-  0.00001
                                    1 3d1+ -0.05836     1 3d2+ -0.00000     1 3d1-  0.22654     2 2px   0.17011     2 2py  -0.84040
                                    2 2px   0.51769     2 2py   1.43436     2 3d2- -0.00005     2 3d1+  0.09659     2 3d2+ -0.00000
                                    2 3d1-  0.64736

 NATURAL CHARGE ORBITALS
 =======================

 Occupation number threshold for pseudo-canonical orbitals: 1.9990 (occupied), 0.0010 (virtual)

 Number of pseudo-canonical occupied orbitals per symmetry:    2
 Number of active natural orbitals per symmetry:               2

   Orb     Occ        Energy       Coefficients

                                   1 1s      1 1s      1 1s      1 2px     1 2py     1 2pz     1 2px     1 2py     1 2pz     1 3d0  
                                   1 3d2-    1 3d1+    1 3d2+    1 3d1-    2 1s      2 1s      2 1s      2 2px     2 2py     2 2pz  
                                   2 2px     2 2py     2 2pz     2 3d0     2 3d2-    2 3d1+    2 3d2+    2 3d1- 

   1.1  2.00000    -2.451881     0.711892  0.000892 -0.000521  0.000000  0.000000 -0.001552  0.000000  0.000000  0.001354  0.000418
                                 0.000000  0.000000 -0.000000  0.000000  0.701819  0.000973 -0.000349 -0.000000 -0.000000  0.001391
                                -0.000000 -0.000000 -0.001338  0.000454  0.000000  0.000000  0.000000  0.000000

   2.1  2.00000    -2.451507    -0.701027  0.005555  0.012103  0.000000  0.000000  0.011159  0.000000  0.000000 -0.001067  0.002537
                                -0.000000  0.000000 -0.000000  0.000000  0.711111 -0.005541 -0.012109 -0.000000 -0.000000  0.011180
                                -0.000000 -0.000000 -0.001086 -0.002531  0.000000  0.000000  0.000000  0.000000

   3.1  1.88495    -0.175049    -0.049546  0.555875 -0.022256 -0.000000 -0.000000  0.161582 -0.000000  0.000000 -0.087422  0.007726
                                -0.000000  0.000000  0.000000 -0.000000 -0.049548  0.555873 -0.022255  0.000000  0.000000 -0.161568
                                -0.000000 -0.000000  0.087423  0.007729  0.000000 -0.000000 -0.000000  0.000000

   4.1  0.11505     0.023855    -0.027183 -0.816327 -0.194332  0.000000  0.000000  0.223377 -0.000000 -0.000000 -0.134708  0.031835
                                -0.000000  0.000000 -0.000000  0.000000  0.027186  0.816293  0.194429  0.000000  0.000000  0.223639
                                -0.000000 -0.000000 -0.134830 -0.031860  0.000000 -0.000000  0.000000 -0.000000

   5.1  0.00000     0.031006     0.000000  0.000000 -0.000000 -0.015685  0.199146 -0.000000 -0.028156  0.357483 -0.000000 -0.000000
                                 0.000000  0.000083 -0.000000 -0.001055 -0.000000 -0.000000  0.000000 -0.015684  0.199134 -0.000000
                                -0.028151  0.357421 -0.000000  0.000000  0.000000 -0.000083  0.000000  0.001054

   6.1  0.00000     0.031006    -0.000000  0.000000 -0.000000  0.199146  0.015685 -0.000000  0.357483  0.028156 -0.000000 -0.000000
                                 0.000000 -0.001055  0.000000 -0.000083  0.000000 -0.000000  0.000000  0.199134  0.015684 -0.000000
                                 0.357421  0.028151 -0.000000  0.000000 -0.000000  0.001054  0.000000  0.000083

   7.1  0.00000     0.045272    -0.029222 -0.262052  0.672784 -0.000000 -0.000000 -0.196159  0.000000  0.000000 -0.722299 -0.007872
                                -0.000000 -0.000000  0.000000 -0.000000 -0.029241 -0.262139  0.674390 -0.000000  0.000000  0.196115
                                -0.000000 -0.000000  0.721414 -0.007859 -0.000000 -0.000000  0.000000 -0.000000

   8.1  0.00000     0.066865    -0.000000 -0.000000  0.000000 -0.019973 -0.022433 -0.000000 -0.903173 -1.014376  0.000000  0.000000
                                -0.000000 -0.001473  0.000000 -0.001654  0.000000  0.000000 -0.000000  0.019979  0.022439  0.000000
                                 0.903187  1.014392  0.000000 -0.000000 -0.000000 -0.001475  0.000000 -0.001656

   9.1  0.00000     0.066865    -0.000000 -0.000000  0.000000 -0.022433  0.019973  0.000000 -1.014376  0.903173  0.000000  0.000000
                                -0.000000 -0.001654 -0.000000  0.001473  0.000000  0.000000 -0.000000  0.022439 -0.019979 -0.000000
                                 1.014392 -0.903187  0.000000 -0.000000 -0.000000 -0.001656  0.000000  0.001475

  10.1  0.00000     0.068217    -0.092663 -0.103197  5.397756  0.000000 -0.000000  0.014247  0.000000  0.000000  2.720317  0.070470
                                 0.000000 -0.000000 -0.000000 -0.000000  0.092661  0.103147 -5.397549 -0.000000 -0.000000  0.014267
                                -0.000000  0.000000  2.720663 -0.070473 -0.000000  0.000000 -0.000000  0.000000

  11.1  0.00000     0.139014    -0.246759 -1.366645  1.190968  0.000000  0.000000 -0.899094 -0.000000 -0.000000  1.410022  0.044196
                                -0.000000  0.000000 -0.000000 -0.000000 -0.246732 -1.366620  1.190205  0.000000 -0.000000  0.899073
                                -0.000000  0.000000 -1.409739  0.044175  0.000000  0.000000 -0.000000 -0.000000

  12.1  0.00000     0.158866    -0.000000 -0.000000  0.000000 -0.570152  1.218530 -0.000000  0.524395 -1.120739  0.000000  0.000000
                                -0.000000 -0.009456 -0.000000  0.020209  0.000000 -0.000000 -0.000000 -0.570114  1.218449 -0.000000
                                 0.524352 -1.120647  0.000000 -0.000000 -0.000000  0.009461  0.000000 -0.020219

  13.1  0.00000     0.158866    -0.000000 -0.000000  0.000000  1.218530  0.570152  0.000000 -1.120739 -0.524395  0.000000  0.000000
                                 0.000000  0.020209 -0.000000  0.009456  0.000000  0.000000 -0.000000  1.218449  0.570114 -0.000000
                                -1.120647 -0.524352  0.000000 -0.000000 -0.000000 -0.020219  0.000000 -0.009461

  14.1  0.00000     0.175751     0.351397  2.043309 -1.991850  0.000000  0.000000 -0.976597 -0.000000 -0.000000  0.818142  0.079146
                                -0.000000 -0.000000 -0.000000 -0.000000  0.351395  2.043247 -1.991930 -0.000000  0.000000  0.976538
                                 0.000000 -0.000000 -0.818073  0.079125  0.000000 -0.000000 -0.000000 -0.000000

  15.1  0.00000     0.214697    -0.000000 -0.000000  0.000000  0.509015  1.466445  0.000000 -0.581760 -1.676022  0.000000  0.000000
                                 0.000000 -0.063481 -0.000000 -0.182885  0.000000  0.000000 -0.000000 -0.509037 -1.466511  0.000000
                                 0.581781  1.676081  0.000000 -0.000000  0.000000 -0.063477 -0.000000 -0.182873

  16.1  0.00000     0.214697     0.000000  0.000000 -0.000000 -1.466445  0.509015 -0.000000  1.676022 -0.581760 -0.000000 -0.000000
                                -0.000000  0.182885 -0.000000 -0.063481 -0.000000 -0.000000  0.000000  1.466511 -0.509037 -0.000000
                                -1.676081  0.581781 -0.000000  0.000000 -0.000000  0.182873 -0.000000 -0.063477

  17.1  0.00000     0.257104     0.472070  2.314769 -8.136505  0.000000  0.000000 -1.533219 -0.000000 -0.000000 -1.295688  0.082340
                                -0.000000 -0.000000  0.000000 -0.000000 -0.472088 -2.314861  8.136596 -0.000000  0.000000 -1.533227
                                 0.000000 -0.000000 -1.295687 -0.082333 -0.000000 -0.000000  0.000000 -0.000000

  18.1  0.00000     0.311141    -0.303624 -1.829909  6.668857 -0.000000 -0.000000  0.165121  0.000000  0.000000  1.925030  0.666839
                                -0.000000  0.000000  0.000000  0.000000  0.303619  1.829900 -6.668855  0.000000 -0.000000  0.165039
                                -0.000000  0.000000  1.925088 -0.666834 -0.000000  0.000000  0.000000 -0.000000

 Natural orbitals saved to record    2100.3 (Orbital set 3)

 Orbital spaces for UNO-CAS (Min. occupation: 0.020  Max. occupation: 1.980):

 Closed:        2
 Active:        2


 **********************************************************************************************************************************
 DATASETS  * FILE   NREC   LENGTH (MB)   RECORD NAMES
              1      19       30.10       500      610      700      900      950      970     1000      129      960     1100   
                                          VAR    BASINP    GEOM    SYMINP    ZMAT    AOBASIS   BASIS     P2S    ABASIS      S 
                                         1400     1410     1200     1210     1080     1600     1650     1300     1700   
                                           T        V       H0       H01     AOSYM     SMH    MOLCAS    ERIS     OPER   

              3       5       14.81       500      610      700     1000     2100   
                                          VAR    BASINP    GEOM     BASIS     UHF  

 PROGRAMS   *        TOTAL   UHF-SCF   RHF-SCF       INT      FILE
 CPU TIMES  *         0.70      0.29      0.13      0.17      0.01
 REAL TIME  *         0.91 SEC
 DISK USED  *        46.97 MB
 **********************************************************************************************************************************

 Dump information in style XML to orbitals.xml                                                                    

 Variables will not be exported.
 Molecular orbitals read from record     2100.3  Type=UHF/ALPHA (state 1.1)
 Occupation numbers read from record     2100.3  Type=UHF/ALPHA (state 1.1)
 Orbital energies read from record       2100.3  Type=UHF/ALPHA (state 1.1)
 Redundancy group numbers read from rec  2100.3  Type=UHF/BETA (state 1.1)
 Molecular orbitals read from record     2100.3  Type=UHF/BETA (state 1.1)
 Occupation numbers read from record     2100.3  Type=UHF/BETA (state 1.1)
 Orbital energies read from record       2100.3  Type=UHF/BETA (state 1.1)
 Redundancy group numbers read from rec  2100.3  Type=UHF/BETA (state 1.1)
 Molecular orbitals read from record     2100.3  Type=UHF/NATURAL (state 1.1)
 Occupation numbers read from record     2100.3  Type=UHF/NATURAL (state 1.1)
 Orbital energies read from record       2100.3  Type=UHF/NATURAL (state 1.1)
 Redundancy group numbers read from rec  2100.3  Type=UHF/BETA (state 1.1)

 **********************************************************************************************************************************

 UHF/cc-pVDZ energy=    -14.869769058011

         UHF-SCF         RHF-SCF
    -14.86976906    -14.86923112
 **********************************************************************************************************************************
 Molpro calculation terminated
