
 Primary working directories    : /scr/yuriaoto/job.023613/molpro.oxmhD63Eay
 Secondary working directories  : /scr/yuriaoto/job.023613/molpro.oxmhD63Eay
 Wavefunction directory         : /scr/yuriaoto/job.023613/
 Main file repository           : /scr/yuriaoto/job.023613/molpro.oxmhD63Eay/

 id        : yuriaoto

 Nodes             nprocs
 t-rex.ufabc.int.br    1

 Using customized tuning parameters: mindgm=8; mindgv=16; mindgc=1; mindgr=1; noblas=0; minvec=7
 default implementation of scratch files=df  


 Variables initialized (933), CPU time= 0.01 sec
 ***,
 memory,40,m
 gprint,orbital,basis,civector
 gthresh,printci=0.0,thrprint=0
 file,3,wfu.dat,old
 
 {bccd,SAVEORB=2150.2,print,CC_NORM_MAX=10.0
 thresh,printci=0.0,ENERGY=1.0E-10,COEFF=1.0E-12
 print,ref=1
 core,0
 wf,18,1,0;
 }
 
 {put,xml,orbitals.xml; orbital,2150.2; nosort; novariables}
 
 Commands  initialized (760), CPU time= 0.01 sec, 617 directives.
 Default parameters read. Elapsed time= 0.05 sec

 Checking input...
 Passed
1


                                         ***  PROGRAM SYSTEM MOLPRO  ***
                                       Copyright, TTI GmbH Stuttgart, 2015
                                    Version 2019.2 linked Abr  7 2019 15:10:35


 **********************************************************************************************************************************
 LABEL *                                                                                 
  64 bit serial version                                                                  DATE: 05-Jun-20          TIME: 21:37:43  
 **********************************************************************************************************************************

 SHA1:             3a8a58c585c929645742fb5a1b7541a4ad1da699
 **********************************************************************************************************************************


 THRESHOLDS:

 ZERO    =  1.00D-12  ONEINT  =  1.00D-12  TWOINT  =  1.00D-11  PREFAC  =  1.00D-14  XXXXXX  =  1.00D-09  EORDER  =  1.00D-04
 ENERGY  =  0.00D+00  ETEST   =  0.00D+00  EDENS   =  0.00D+00  THRDEDEF=  1.00D-06  GRADIENT=  1.00D-02  STEP    =  1.00D-03
 ORBITAL =  1.00D-05  CIVEC   =  1.00D-05  COEFF   =  1.00D-04  PRINTCI =  0.00D+00  PUNCHCI =  9.90D+01  OPTGRAD =  3.00D-04
 OPTENERG=  1.00D-06  OPTSTEP =  3.00D-04  THRGRAD =  1.00D-10  COMPRESS=  1.00D-11  VARMIN  =  1.00D-07  VARMAX  =  1.00D-03
 THRDOUB =  0.00D+00  THRDIV  =  1.00D-05  THRRED  =  1.00D-07  THRPSP  =  1.00D+00  THRDC   =  1.00D-10  THRCS   =  1.00D-10
 THRNRM  =  1.00D-08  THREQ   =  0.00D+00  THRDE   =  1.00D+00  THRREF  =  1.00D-05  SPARFAC =  1.00D+00  THRDLP  =  1.00D-07
 THRDIA  =  1.00D-10  THRDLS  =  1.00D-07  THRGPS  =  0.00D+00  THRKEX  =  0.00D+00  THRDIS  =  2.00D-01  THRVAR  =  1.00D-10
 THRLOC  =  1.00D-06  THRGAP  =  1.00D-06  THRLOCT = -1.00D+00  THRGAPT = -1.00D+00  THRORB  =  1.00D-06  THRMLTP =  0.00D+00
 THRCPQCI=  1.00D-10  KEXTA   =  0.00D+00  THRCOARS=  0.00D+00  SYMTOL  =  1.00D-06  GRADTOL =  1.00D-06  THROVL  =  1.00D-08
 THRORTH =  1.00D-08  GRID    =  1.00D-06  GRIDMAX =  1.00D-03  DTMAX   =  0.00D+00  THROCCDE=  1.00D-01  THROCCDE=  1.00D-01
 THRPRINT=  0.00D+00


 Variable memory set to   40000000 words,  buffer space 



 Permanent file  3  wfu.dat  assigned.  Implementation=df    Size= 14.08 MB


 PROGRAM * RESTART 


 Reading variables from file 3

 _FNUC           =      0.00000000
 _BASIS          =    6-31G
 _NELEC          =     18.00000000
 _PROGRAM        =    RHF-SCF
 _DMZ            =     -0.64056636
 _DMX_SCF        =      0.00000000
 _DMY_SCF        =      0.00000000
 _DMZ_SCF        =     -0.64056636
 _HOMO           =      2.20000000
 _EHOMO          =     -0.49295113
 _LUMO           =      6.10000000
 _ELUMO          =      0.32493986
 _ENERGY         =   -459.60831721
 _ENERGY_METHOD  =    RHF
 _ENERGY_BASIS   =    6-31G
 _ENUC           =     11.33333333
 _EPS1(1:9)      =   -104.81304705   -10.58851940    -8.06562948    -1.29348723    -0.68951886     0.32493986
                        0.41098157     0.59951917     1.47579847
 _EPS2(1:3)      =     -8.04437587    -0.49295113     0.61252577
 _EPS3(1:3)      =     -8.04437587    -0.49295113     0.61252577
 _IPROC_MPP      =      0.00000000
 _IPROC_MPPX     =      0.00000000
 _ORBITAL        =   2100.30000000
 _STATUS         =      1.00000000
 _DATE           =    31-May-20
 _LASTORB        =    RHF
 _OUTPUT         =    /scr/yuriaoto/job.023311/RHF.xml
 _PGROUP         =    C2v 
 _TIME           =    01:19:24
 R               =      1.50000000

 Geometry written to block  1 of record 700


 **********************************************************************************************************************************
 DATASETS  * FILE   NREC   LENGTH (MB)   RECORD NAMES
              3       5       14.77       500      610      700     1000     2100   
                                          VAR    BASINP    GEOM     BASIS     RHF  

 PROGRAMS   *        TOTAL   RESTART
 CPU TIMES  *         0.12      0.01
 REAL TIME  *         0.15 SEC
 DISK USED  *        26.84 MB
 **********************************************************************************************************************************


 Recomputing integrals since basis changed


 Using spherical harmonics

 Library entry H      S 6-31G                selected for orbital group  1
 Library entry CL     S 6-31G                selected for orbital group  2
 Library entry CL     P 6-31G                selected for orbital group  2


 PROGRAM * SEWARD (Integral evaluation for generally contracted gaussian basis sets)     Author: Roland Lindh, 1990

 Geometry written to block  1 of record 700

 Orientation using atomic masses  
 Molecule type: Linear
 User-specified symmetry elements: X,Y
 Symmetry elements: X,Y
 Rotational constants:     818.4131427    818.4131427      0.0000000 GHz  (calculated with average atomic masses)

 Point group  C2v 



 ATOMIC COORDINATES

 NR  ATOM    CHARGE       X              Y              Z

   1  H       1.00    0.000000000    0.000000000   -1.458533433
   2  CL     17.00    0.000000000    0.000000000    0.041466567

 Bond lengths in Bohr (Angstrom)

 1-2  1.500000000
     ( 0.793765816)


 BASIS DATA

   Nr Sym  Nuc  Type         Exponents   Contraction coefficients

    1.1 A1    1  1s          18.731137     0.033495
                              2.825394     0.234727
                              0.640122     0.813757
    2.1 A1    1  1s           0.161278     1.000000
    3.1 A1    2  1s       25180.100000     0.001833
                           3780.350000     0.014034
                            860.474000     0.069097
                            242.145000     0.237452
                             77.334900     0.483034
                             26.247000     0.339856
    4.1 A1    2  1s         491.765000    -0.002297
                            116.984000    -0.030714
                             37.415300    -0.112528
                             13.783400     0.045016
                              5.452150     0.589353
                              2.225880     0.465206
    5.1 A1    2  1s           3.186490    -0.251827
                              1.144270     0.061589
                              0.420377     1.060180
    6.1 A1    2  1s           0.142657     1.000000
    7.1 A1    2  2pz        491.765000     0.003989
                            116.984000     0.030318
                             37.415300     0.129880
                             13.783400     0.327951
                              5.452150     0.453527
                              2.225880     0.252154
    8.1 A1    2  2pz          3.186490    -0.014299
                              1.144270     0.323572
                              0.420377     0.743507
    9.1 A1    2  2pz          0.142657     1.000000
    1.2 B1    2  2px        491.765000     0.003989
                            116.984000     0.030318
                             37.415300     0.129880
                             13.783400     0.327951
                              5.452150     0.453527
                              2.225880     0.252154
    2.2 B1    2  2px          3.186490    -0.014299
                              1.144270     0.323572
                              0.420377     0.743507
    3.2 B1    2  2px          0.142657     1.000000
    1.3 B2    2  2py        491.765000     0.003989
                            116.984000     0.030318
                             37.415300     0.129880
                             13.783400     0.327951
                              5.452150     0.453527
                              2.225880     0.252154
    2.3 B2    2  2py          3.186490    -0.014299
                              1.144270     0.323572
                              0.420377     0.743507
    3.3 B2    2  2py          0.142657     1.000000

 NUCLEAR CHARGE:                   18
 NUMBER OF PRIMITIVE AOS:          50
 NUMBER OF SYMMETRY AOS:           50
 NUMBER OF CONTRACTIONS:           15   (    9A1  +    3B1  +    3B2  +    0A2  )
 NUMBER OF CORE ORBITALS:           5   (    3A1  +    1B1  +    1B2  +    0A2  )
 NUMBER OF VALENCE ORBITALS:        5   (    3A1  +    1B1  +    1B2  +    0A2  )


 NUCLEAR REPULSION ENERGY   11.33333333

 Eigenvalues of metric

         1 0.130E-01 0.193E+00 0.223E+00 0.485E+00 0.687E+00 0.973E+00 0.118E+01 0.187E+01
         2 0.323E+00 0.942E+00 0.174E+01
         3 0.323E+00 0.942E+00 0.174E+01


 Contracted 2-electron integrals neglected if value below      1.0D-11
 AO integral compression algorithm  1   Integral accuracy      1.0D-11

     0.262 MB (compressed) written to integral file (100.0%)


 NUMBER OF SORTED TWO-ELECTRON INTEGRALS:       2805.     BUFFER LENGTH:  32768
 NUMBER OF SEGMENTS:   1  SEGMENT LENGTH:       2805      RECORD LENGTH: 524288

 Memory used in sort:       0.56 MW

 SORT1 READ        5185. AND WROTE        2181. INTEGRALS IN      1 RECORDS. CPU TIME:     0.00 SEC, REAL TIME:     0.00 SEC
 SORT2 READ        2181. AND WROTE        2805. INTEGRALS IN      1 RECORDS. CPU TIME:     0.00 SEC, REAL TIME:     0.01 SEC

 FILE SIZES:   FILE 1:    30.2 MBYTE,  FILE 4:     4.2 MBYTE,   TOTAL:     34.4 MBYTE

 OPERATOR DM      FOR CENTER  0  COORDINATES:    0.000000    0.000000    0.000000


 **********************************************************************************************************************************
 DATASETS  * FILE   NREC   LENGTH (MB)   RECORD NAMES
              1      19       29.97       500      700      610      900      950      970     1000      129      960     1100   
                                          VAR     GEOM    BASINP   SYMINP    ZMAT    AOBASIS   BASIS     P2S    ABASIS      S 
                                         1400     1410     1200     1210     1080     1600     1650     1300     1700   
                                           T        V       H0       H01     AOSYM     SMH    MOLCAS    ERIS     OPER   

              3       5       14.77       500      610      700     1000     2100   
                                          VAR    BASINP    GEOM     BASIS     RHF  

 PROGRAMS   *        TOTAL       INT   RESTART
 CPU TIMES  *         0.25      0.11      0.01
 REAL TIME  *         0.38 SEC
 DISK USED  *        49.44 MB
 **********************************************************************************************************************************


 PROGRAM * BCCD (Closed-shell Brueckner coupled-cluster)     Authors: C. Hampel, H.-J. Werner, 1991, M. Deegan, P.J. Knowles, 1992


 Input parameters for THRESH:

 ENERGY   =    1.00D-10
 COEFF    =    1.00D-12
 PRINTCI  =    0.000000
 THRPRINT =    0.000000

 Convergence thresholds:  THRVAR = 1.00D-24  THRDEN = 1.00D-10

 Number of closed-shell orbitals:   9 (   5   2   2 )
 Number of external orbitals:       6 (   4   1   1 )

 Molecular orbitals read from record     2100.3  Type=RHF/CANONICAL (state 1.1)

 Number of N-1 electron functions:               9
 Number of N-2 electron functions:              45
 Number of singly external CSFs:                24
 Number of doubly external CSFs:               492
 Total number of CSFs:                         517

 Brueckner orbitals will be computed and saved on record    2150.2

 Length of J-op  integral file:               0.00 MB
 Length of K-op  integral file:               0.04 MB

 Integral transformation finished. Total CPU:   0.00 sec, npass=  1  Memory used:   0.07 MW

 Reference energy:                   -459.60831721

 MP2 singles energy:                   -0.00000000
 MP2 singlet pair energy:              -0.02869034
 MP2 triplet pair energy:              -0.01086841
 MP2 correlation energy:               -0.03955875
 MP2 total energy:                   -459.64787597

 SCS-MP2 correlation energy:           -0.04119097   (PS=  1.200000  PT=  0.333333)
 SCS-MP2 total energy:               -459.64950819

 ITER.      SQ.NORM     CORR.ENERGY   TOTAL ENERGY   ENERGY CHANGE        DEN1      VAR(S)    VAR(P)  DIIS     TIME  TIME/IT
   1      1.01795111    -0.04620147  -459.65451868    -0.00664271    -0.00498534  0.18D-03  0.33D-03  1  1     0.01     0.00
   2      1.01957097    -0.04681817  -459.65486806    -0.00061670    -0.00233840  0.68D-05  0.36D-04  2  2     0.02     0.00
   3      1.01968692    -0.04696928  -459.65488436    -0.00015111    -0.00009071  0.11D-06  0.97D-06  3  3     0.02     0.00
   4      1.01969083    -0.04697838  -459.65488335    -0.00000910    -0.00000428  0.15D-07  0.40D-07  4  4     0.02     0.00
   5      1.01969099    -0.04697604  -459.65488444     0.00000235     0.00000150  0.56D-09  0.58D-09  5  5     0.03     0.00
   6      1.01969109    -0.04697616  -459.65488443    -0.00000013    -0.00000021  0.23D-10  0.14D-10  6  6     0.03     0.00
   7      1.01969106    -0.04697617  -459.65488443    -0.00000000     0.00000003  0.63D-12  0.56D-12  6  1     0.03     0.00
   8      1.01969107    -0.04697616  -459.65488443     0.00000001    -0.00000000  0.13D-13  0.24D-13  6  2     0.04     0.00
   9      1.01969107    -0.04697616  -459.65488443     0.00000000    -0.00000000  0.69D-15  0.15D-14  6  3     0.04     0.00
  10      1.01969107    -0.04697616  -459.65488443    -0.00000000    -0.00000000  0.27D-16  0.30D-16  6  4     0.05     0.00
  11      1.01969107    -0.04697616  -459.65488443    -0.00000000    -0.00000000  0.20D-17  0.25D-17  6  5     0.05     0.00
  12      1.01969107    -0.04697616  -459.65488443    -0.00000000    -0.00000000  0.54D-19  0.77D-19  6  3     0.05     0.00
  13      1.01969107    -0.04697616  -459.65488443    -0.00000000    -0.00000000  0.85D-21  0.28D-20  6  6     0.06     0.00
  14      1.01969107    -0.04697616  -459.65488443     0.00000000    -0.00000000  0.20D-22  0.53D-22  6  1     0.06     0.00
  15      1.01969107    -0.04697616  -459.65488443    -0.00000000    -0.00000000  0.12D-23  0.25D-23  6  2     0.06     0.00
  16      1.01969107    -0.04697616  -459.65488443     0.00000000     0.00000000  0.72D-25  0.55D-25  6  4     0.07     0.00

 Norm of t1 vector:      0.00000000      S-energy:    -0.00000000      T1 diagnostic:  0.00000000

 Orbital rotation generators (print threshold =  0.000E+00):

         I         SYM. A    A   T(IA)

         1         1         1      0.00000079
         1         1         2     -0.00000107
         1         1         3      0.00000279
         1         1         4      0.00000072
         2         1         1     -0.00010822
         2         1         2      0.00010060
         2         1         3     -0.00019092
         2         1         4     -0.00011447
         3         1         1      0.00017616
         3         1         2     -0.00017690
         3         1         3     -0.00034409
         3         1         4      0.00031333
         4         1         1     -0.00028069
         4         1         2     -0.00287340
         4         1         3      0.00153267
         4         1         4     -0.00079466
         5         1         1     -0.00087792
         5         1         2      0.00194853
         5         1         3      0.00557530
         5         1         4     -0.00103330
         6         2         1     -0.00055767
         7         2         1      0.00681455
         8         3         1     -0.00055767
         9         3         1      0.00681455

 Doubles amplitudes (print threshold =  0.000E+00):

         I         J         SYM. A    SYM. B    A         B      T(IJ, AB)

         1         1         1         1         1         1     -0.00000752
         1         1         1         1         1         2      0.00001293
         1         1         1         1         1         3     -0.00000676
         1         1         1         1         1         4     -0.00001917
         1         1         1         1         2         1      0.00001293
         1         1         1         1         2         2     -0.00001383
         1         1         1         1         2         3      0.00000807
         1         1         1         1         2         4      0.00002722
         1         1         1         1         3         1     -0.00000676
         1         1         1         1         3         2      0.00000807
         1         1         1         1         3         3     -0.00004858
         1         1         1         1         3         4      0.00000230
         1         1         1         1         4         1     -0.00001917
         1         1         1         1         4         2      0.00002722
         1         1         1         1         4         3      0.00000230
         1         1         1         1         4         4     -0.00004853
         1         1         2         2         1         1     -0.00004328
         1         1         3         3         1         1     -0.00004328
         2         1         1         1         1         1      0.00000237
         2         1         1         1         1         2     -0.00000121
         2         1         1         1         1         3      0.00001518
         2         1         1         1         1         4     -0.00000189
         2         1         1         1         2         1     -0.00000126
         2         1         1         1         2         2      0.00000337
         2         1         1         1         2         3     -0.00001981
         2         1         1         1         2         4      0.00000365
         2         1         1         1         3         1      0.00001440
         2         1         1         1         3         2     -0.00001886
         2         1         1         1         3         3      0.00000475
         2         1         1         1         3         4      0.00003294
         2         1         1         1         4         1     -0.00000070
         2         1         1         1         4         2      0.00000223
         2         1         1         1         4         3      0.00003316
         2         1         1         1         4         4     -0.00001473
         2         1         2         2         1         1     -0.00003528
         2         1         3         3         1         1     -0.00003528
         2         2         1         1         1         1     -0.00013023
         2         2         1         1         1         2      0.00019399
         2         2         1         1         1         3     -0.00018897
         2         2         1         1         1         4     -0.00025502
         2         2         1         1         2         1      0.00019399
         2         2         1         1         2         2     -0.00022073
         2         2         1         1         2         3      0.00022979
         2         2         1         1         2         4      0.00032980
         2         2         1         1         3         1     -0.00018897
         2         2         1         1         3         2      0.00022979
         2         2         1         1         3         3     -0.00063211
         2         2         1         1         3         4     -0.00018776
         2         2         1         1         4         1     -0.00025502
         2         2         1         1         4         2      0.00032980
         2         2         1         1         4         3     -0.00018776
         2         2         1         1         4         4     -0.00051405
         2         2         2         2         1         1     -0.00033972
         2         2         3         3         1         1     -0.00033972
         3         1         1         1         1         1      0.00000195
         3         1         1         1         1         2     -0.00000220
         3         1         1         1         1         3     -0.00001626
         3         1         1         1         1         4      0.00001053
         3         1         1         1         2         1     -0.00000115
         3         1         1         1         2         2      0.00000147
         3         1         1         1         2         3      0.00001788
         3         1         1         1         2         4     -0.00000972
         3         1         1         1         3         1      0.00001550
         3         1         1         1         3         2     -0.00001984
         3         1         1         1         3         3     -0.00000669
         3         1         1         1         3         4      0.00003896
         3         1         1         1         4         1     -0.00000145
         3         1         1         1         4         2      0.00000189
         3         1         1         1         4         3     -0.00003665
         3         1         1         1         4         4      0.00001047
         3         1         2         2         1         1     -0.00000083
         3         1         3         3         1         1     -0.00000083
         3         2         1         1         1         1      0.00017336
         3         2         1         1         1         2     -0.00020521
         3         2         1         1         1         3      0.00017870
         3         2         1         1         1         4      0.00028568
         3         2         1         1         2         1     -0.00020722
         3         2         1         1         2         2      0.00026788
         3         2         1         1         2         3     -0.00019617
         3         2         1         1         2         4     -0.00039547
         3         2         1         1         3         1     -0.00021408
         3         2         1         1         3         2      0.00028121
         3         2         1         1         3         3     -0.00083035
         3         2         1         1         3         4     -0.00018215
         3         2         1         1         4         1      0.00042058
         3         2         1         1         4         2     -0.00054612
         3         2         1         1         4         3      0.00065921
         3         2         1         1         4         4      0.00066148
         3         2         2         2         1         1      0.00000201
         3         2         3         3         1         1      0.00000201
         3         3         1         1         1         1     -0.00015642
         3         3         1         1         1         2      0.00028585
         3         3         1         1         1         3      0.00027598
         3         3         1         1         1         4     -0.00052442
         3         3         1         1         2         1      0.00028585
         3         3         1         1         2         2     -0.00033241
         3         3         1         1         2         3     -0.00032093
         3         3         1         1         2         4      0.00069860
         3         3         1         1         3         1      0.00027598
         3         3         1         1         3         2     -0.00032093
         3         3         1         1         3         3     -0.00123362
         3         3         1         1         3         4      0.00100245
         3         3         1         1         4         1     -0.00052442
         3         3         1         1         4         2      0.00069860
         3         3         1         1         4         3      0.00100245
         3         3         1         1         4         4     -0.00150429
         3         3         2         2         1         1     -0.00020200
         3         3         3         3         1         1     -0.00020200
         4         1         1         1         1         1      0.00000011
         4         1         1         1         1         2     -0.00000170
         4         1         1         1         1         3     -0.00000739
         4         1         1         1         1         4      0.00000463
         4         1         1         1         2         1     -0.00000276
         4         1         1         1         2         2      0.00000153
         4         1         1         1         2         3      0.00001251
         4         1         1         1         2         4     -0.00000987
         4         1         1         1         3         1     -0.00000375
         4         1         1         1         3         2      0.00000556
         4         1         1         1         3         3      0.00000258
         4         1         1         1         3         4     -0.00001049
         4         1         1         1         4         1      0.00000162
         4         1         1         1         4         2     -0.00000299
         4         1         1         1         4         3     -0.00001625
         4         1         1         1         4         4      0.00001039
         4         1         2         2         1         1      0.00002352
         4         1         3         3         1         1      0.00002352
         4         2         1         1         1         1      0.00006964
         4         2         1         1         1         2     -0.00009850
         4         2         1         1         1         3      0.00019461
         4         2         1         1         1         4     -0.00001651
         4         2         1         1         2         1     -0.00007150
         4         2         1         1         2         2     -0.00000023
         4         2         1         1         2         3     -0.00037533
         4         2         1         1         2         4     -0.00007667
         4         2         1         1         3         1      0.00010820
         4         2         1         1         3         2     -0.00018164
         4         2         1         1         3         3      0.00005030
         4         2         1         1         3         4      0.00020594
         4         2         1         1         4         1      0.00011681
         4         2         1         1         4         2     -0.00031232
         4         2         1         1         4         3      0.00028982
         4         2         1         1         4         4     -0.00004446
         4         2         2         2         1         1     -0.00034322
         4         2         3         3         1         1     -0.00034322
         4         3         1         1         1         1     -0.00015241
         4         3         1         1         1         2      0.00014630
         4         3         1         1         1         3      0.00035511
         4         3         1         1         1         4     -0.00032067
         4         3         1         1         2         1      0.00014040
         4         3         1         1         2         2      0.00018695
         4         3         1         1         2         3     -0.00033489
         4         3         1         1         2         4      0.00053815
         4         3         1         1         3         1     -0.00007513
         4         3         1         1         3         2      0.00028129
         4         3         1         1         3         3      0.00010830
         4         3         1         1         3         4     -0.00008124
         4         3         1         1         4         1     -0.00028376
         4         3         1         1         4         2      0.00051533
         4         3         1         1         4         3      0.00063009
         4         3         1         1         4         4     -0.00047367
         4         3         2         2         1         1      0.00004267
         4         3         3         3         1         1      0.00004267
         4         4         1         1         1         1     -0.00790944
         4         4         1         1         1         2      0.00305846
         4         4         1         1         1         3     -0.00185309
         4         4         1         1         1         4     -0.01069880
         4         4         1         1         2         1      0.00305846
         4         4         1         1         2         2     -0.01362820
         4         4         1         1         2         3      0.00046938
         4         4         1         1         2         4     -0.00424223
         4         4         1         1         3         1     -0.00185309
         4         4         1         1         3         2      0.00046938
         4         4         1         1         3         3     -0.00385554
         4         4         1         1         3         4     -0.00275129
         4         4         1         1         4         1     -0.01069880
         4         4         1         1         4         2     -0.00424223
         4         4         1         1         4         3     -0.00275129
         4         4         1         1         4         4     -0.02223073
         4         4         2         2         1         1     -0.00671988
         4         4         3         3         1         1     -0.00671988
         5         1         1         1         1         1     -0.00000014
         5         1         1         1         1         2     -0.00000104
         5         1         1         1         1         3     -0.00000162
         5         1         1         1         1         4      0.00000120
         5         1         1         1         2         1      0.00000207
         5         1         1         1         2         2     -0.00000309
         5         1         1         1         2         3     -0.00000530
         5         1         1         1         2         4      0.00000676
         5         1         1         1         3         1     -0.00000739
         5         1         1         1         3         2      0.00000962
         5         1         1         1         3         3      0.00000860
         5         1         1         1         3         4     -0.00002058
         5         1         1         1         4         1      0.00000310
         5         1         1         1         4         2     -0.00000533
         5         1         1         1         4         3     -0.00000460
         5         1         1         1         4         4      0.00000937
         5         1         2         2         1         1      0.00001202
         5         1         3         3         1         1      0.00001202
         5         2         1         1         1         1     -0.00009459
         5         2         1         1         1         2      0.00009526
         5         2         1         1         1         3      0.00013722
         5         2         1         1         1         4     -0.00022681
         5         2         1         1         2         1     -0.00002528
         5         2         1         1         2         2      0.00012283
         5         2         1         1         2         3      0.00021170
         5         2         1         1         2         4     -0.00007743
         5         2         1         1         3         1      0.00026760
         5         2         1         1         3         2     -0.00026348
         5         2         1         1         3         3      0.00017735
         5         2         1         1         3         4      0.00053760
         5         2         1         1         4         1     -0.00022971
         5         2         1         1         4         2      0.00034740
         5         2         1         1         4         3      0.00013192
         5         2         1         1         4         4     -0.00046395
         5         2         2         2         1         1     -0.00018869
         5         2         3         3         1         1     -0.00018869
         5         3         1         1         1         1     -0.00000961
         5         3         1         1         1         2     -0.00022763
         5         3         1         1         1         3      0.00023144
         5         3         1         1         1         4     -0.00013913
         5         3         1         1         2         1     -0.00005863
         5         3         1         1         2         2     -0.00027114
         5         3         1         1         2         3      0.00020600
         5         3         1         1         2         4     -0.00030206
         5         3         1         1         3         1     -0.00015287
         5         3         1         1         3         2      0.00041729
         5         3         1         1         3         3      0.00028762
         5         3         1         1         3         4     -0.00028028
         5         3         1         1         4         1      0.00011901
         5         3         1         1         4         2     -0.00066951
         5         3         1         1         4         3      0.00011009
         5         3         1         1         4         4     -0.00008348
         5         3         2         2         1         1     -0.00010212
         5         3         3         3         1         1     -0.00010212
         5         4         1         1         1         1      0.00485571
         5         4         1         1         1         2      0.00078862
         5         4         1         1         1         3      0.00078657
         5         4         1         1         1         4      0.00697589
         5         4         1         1         2         1     -0.00145419
         5         4         1         1         2         2      0.00960689
         5         4         1         1         2         3      0.00209979
         5         4         1         1         2         4      0.00516501
         5         4         1         1         3         1     -0.00472731
         5         4         1         1         3         2      0.00705167
         5         4         1         1         3         3     -0.01019556
         5         4         1         1         3         4     -0.00116150
         5         4         1         1         4         1      0.00669244
         5         4         1         1         4         2      0.00844028
         5         4         1         1         4         3      0.00449121
         5         4         1         1         4         4      0.01543281
         5         4         2         2         1         1     -0.00406667
         5         4         3         3         1         1     -0.00406667
         5         5         1         1         1         1     -0.02270176
         5         5         1         1         1         2     -0.00718589
         5         5         1         1         1         3      0.00302031
         5         5         1         1         1         4     -0.01574992
         5         5         1         1         2         1     -0.00718589
         5         5         1         1         2         2     -0.00987869
         5         5         1         1         2         3     -0.00109542
         5         5         1         1         2         4     -0.01083150
         5         5         1         1         3         1      0.00302031
         5         5         1         1         3         2     -0.00109542
         5         5         1         1         3         3     -0.03047496
         5         5         1         1         3         4      0.00872921
         5         5         1         1         4         1     -0.01574992
         5         5         1         1         4         2     -0.01083150
         5         5         1         1         4         3      0.00872921
         5         5         1         1         4         4     -0.02265351
         5         5         2         2         1         1     -0.00548045
         5         5         3         3         1         1     -0.00548045
         6         6         1         1         1         1     -0.00005389
         6         6         1         1         1         2      0.00010841
         6         6         1         1         1         3     -0.00009735
         6         6         1         1         1         4     -0.00013752
         6         6         1         1         2         1      0.00010841
         6         6         1         1         2         2     -0.00007705
         6         6         1         1         2         3      0.00009424
         6         6         1         1         2         4      0.00017442
         6         6         1         1         3         1     -0.00009735
         6         6         1         1         3         2      0.00009424
         6         6         1         1         3         3     -0.00033704
         6         6         1         1         3         4     -0.00007932
         6         6         1         1         4         1     -0.00013752
         6         6         1         1         4         2      0.00017442
         6         6         1         1         4         3     -0.00007932
         6         6         1         1         4         4     -0.00030543
         6         6         2         2         1         1     -0.00218025
         6         6         3         3         1         1     -0.00019879
         7         6         1         1         1         1     -0.00013778
         7         6         1         1         1         2      0.00004725
         7         6         1         1         1         3     -0.00011110
         7         6         1         1         1         4     -0.00028324
         7         6         1         1         2         1     -0.00005527
         7         6         1         1         2         2      0.00003174
         7         6         1         1         2         3     -0.00007927
         7         6         1         1         2         4     -0.00005189
         7         6         1         1         3         1     -0.00002355
         7         6         1         1         3         2     -0.00002800
         7         6         1         1         3         3     -0.00008647
         7         6         1         1         3         4     -0.00003210
         7         6         1         1         4         1     -0.00018787
         7         6         1         1         4         2      0.00008127
         7         6         1         1         4         3     -0.00009099
         7         6         1         1         4         4     -0.00042598
         7         6         2         2         1         1      0.00072563
         7         6         3         3         1         1     -0.00012043
         7         7         1         1         1         1     -0.00908389
         7         7         1         1         1         2     -0.00396317
         7         7         1         1         1         3     -0.00068930
         7         7         1         1         1         4     -0.00608678
         7         7         1         1         2         1     -0.00396317
         7         7         1         1         2         2     -0.01253420
         7         7         1         1         2         3      0.00716447
         7         7         1         1         2         4     -0.00087574
         7         7         1         1         3         1     -0.00068930
         7         7         1         1         3         2      0.00716447
         7         7         1         1         3         3     -0.01071485
         7         7         1         1         3         4     -0.00125154
         7         7         1         1         4         1     -0.00608678
         7         7         1         1         4         2     -0.00087574
         7         7         1         1         4         3     -0.00125154
         7         7         1         1         4         4     -0.00573503
         7         7         2         2         1         1     -0.04043874
         7         7         3         3         1         1     -0.00382001
         8         8         1         1         1         1     -0.00005389
         8         8         1         1         1         2      0.00010841
         8         8         1         1         1         3     -0.00009735
         8         8         1         1         1         4     -0.00013752
         8         8         1         1         2         1      0.00010841
         8         8         1         1         2         2     -0.00007705
         8         8         1         1         2         3      0.00009424
         8         8         1         1         2         4      0.00017442
         8         8         1         1         3         1     -0.00009735
         8         8         1         1         3         2      0.00009424
         8         8         1         1         3         3     -0.00033704
         8         8         1         1         3         4     -0.00007932
         8         8         1         1         4         1     -0.00013752
         8         8         1         1         4         2      0.00017442
         8         8         1         1         4         3     -0.00007932
         8         8         1         1         4         4     -0.00030543
         8         8         2         2         1         1     -0.00019879
         8         8         3         3         1         1     -0.00218025
         9         8         1         1         1         1     -0.00013778
         9         8         1         1         1         2      0.00004725
         9         8         1         1         1         3     -0.00011110
         9         8         1         1         1         4     -0.00028324
         9         8         1         1         2         1     -0.00005527
         9         8         1         1         2         2      0.00003174
         9         8         1         1         2         3     -0.00007927
         9         8         1         1         2         4     -0.00005189
         9         8         1         1         3         1     -0.00002355
         9         8         1         1         3         2     -0.00002800
         9         8         1         1         3         3     -0.00008647
         9         8         1         1         3         4     -0.00003210
         9         8         1         1         4         1     -0.00018787
         9         8         1         1         4         2      0.00008127
         9         8         1         1         4         3     -0.00009099
         9         8         1         1         4         4     -0.00042598
         9         8         2         2         1         1     -0.00012043
         9         8         3         3         1         1      0.00072563
         9         9         1         1         1         1     -0.00908389
         9         9         1         1         1         2     -0.00396317
         9         9         1         1         1         3     -0.00068930
         9         9         1         1         1         4     -0.00608678
         9         9         1         1         2         1     -0.00396317
         9         9         1         1         2         2     -0.01253420
         9         9         1         1         2         3      0.00716447
         9         9         1         1         2         4     -0.00087574
         9         9         1         1         3         1     -0.00068930
         9         9         1         1         3         2      0.00716447
         9         9         1         1         3         3     -0.01071485
         9         9         1         1         3         4     -0.00125154
         9         9         1         1         4         1     -0.00608678
         9         9         1         1         4         2     -0.00087574
         9         9         1         1         4         3     -0.00125154
         9         9         1         1         4         4     -0.00573503
         9         9         2         2         1         1     -0.00382001
         9         9         3         3         1         1     -0.04043874
         6         1         1         2         1         1     -0.00001429
         6         1         1         2         2         1      0.00001994
         6         1         1         2         3         1     -0.00003278
         6         1         1         2         4         1     -0.00002032
         6         1         2         1         1         1      0.00001038
         6         1         2         1         1         2     -0.00001272
         6         1         2         1         1         3      0.00002209
         6         1         2         1         1         4      0.00001574
         6         2         1         2         1         1     -0.00015239
         6         2         1         2         2         1      0.00017463
         6         2         1         2         3         1     -0.00030561
         6         2         1         2         4         1     -0.00024378
         6         2         2         1         1         1     -0.00047346
         6         2         2         1         1         2      0.00057889
         6         2         2         1         1         3     -0.00095411
         6         2         2         1         1         4     -0.00070797
         6         3         1         2         1         1      0.00006386
         6         3         1         2         2         1     -0.00007448
         6         3         1         2         3         1     -0.00015167
         6         3         1         2         4         1      0.00020073
         6         3         2         1         1         1      0.00048306
         6         3         2         1         1         2     -0.00058479
         6         3         2         1         1         3     -0.00116137
         6         3         2         1         1         4      0.00142573
         6         4         1         2         1         1     -0.00018746
         6         4         1         2         2         1      0.00004565
         6         4         1         2         3         1     -0.00017027
         6         4         1         2         4         1     -0.00038437
         6         4         2         1         1         1      0.00029802
         6         4         2         1         1         2     -0.00056658
         6         4         2         1         1         3      0.00031985
         6         4         2         1         1         4      0.00051348
         6         5         1         2         1         1     -0.00005685
         6         5         1         2         2         1     -0.00000505
         6         5         1         2         3         1     -0.00019912
         6         5         1         2         4         1     -0.00005138
         6         5         2         1         1         1     -0.00011063
         6         5         2         1         1         2      0.00014138
         6         5         2         1         1         3      0.00084833
         6         5         2         1         1         4     -0.00046370
         7         1         1         2         1         1      0.00000979
         7         1         1         2         2         1     -0.00000553
         7         1         1         2         3         1      0.00001435
         7         1         1         2         4         1      0.00001441
         7         1         2         1         1         1     -0.00000170
         7         1         2         1         1         2      0.00000213
         7         1         2         1         1         3     -0.00000417
         7         1         2         1         1         4     -0.00000259
         7         2         1         2         1         1     -0.00024427
         7         2         1         2         2         1     -0.00007112
         7         2         1         2         3         1     -0.00012737
         7         2         1         2         4         1     -0.00030812
         7         2         2         1         1         1      0.00016369
         7         2         2         1         1         2     -0.00026285
         7         2         2         1         1         3      0.00038602
         7         2         2         1         1         4      0.00016738
         7         3         1         2         1         1      0.00007893
         7         3         1         2         2         1     -0.00000653
         7         3         1         2         3         1     -0.00009934
         7         3         1         2         4         1      0.00018339
         7         3         2         1         1         1     -0.00027070
         7         3         2         1         1         2      0.00034492
         7         3         2         1         1         3      0.00066635
         7         3         2         1         1         4     -0.00064461
         7         4         1         2         1         1     -0.00649915
         7         4         1         2         2         1      0.00207218
         7         4         1         2         3         1     -0.00495073
         7         4         1         2         4         1     -0.00672226
         7         4         2         1         1         1     -0.00979536
         7         4         2         1         1         2      0.01201928
         7         4         2         1         1         3     -0.00912140
         7         4         2         1         1         4     -0.00808463
         7         5         1         2         1         1     -0.00210997
         7         5         1         2         2         1      0.00103842
         7         5         1         2         3         1     -0.00914782
         7         5         1         2         4         1     -0.00049320
         7         5         2         1         1         1      0.00036625
         7         5         2         1         1         2     -0.00341832
         7         5         2         1         1         3     -0.02416736
         7         5         2         1         1         4      0.00270268
         8         1         1         3         1         1     -0.00001429
         8         1         1         3         2         1      0.00001994
         8         1         1         3         3         1     -0.00003278
         8         1         1         3         4         1     -0.00002032
         8         1         3         1         1         1      0.00001038
         8         1         3         1         1         2     -0.00001272
         8         1         3         1         1         3      0.00002209
         8         1         3         1         1         4      0.00001574
         8         2         1         3         1         1     -0.00015239
         8         2         1         3         2         1      0.00017463
         8         2         1         3         3         1     -0.00030561
         8         2         1         3         4         1     -0.00024378
         8         2         3         1         1         1     -0.00047346
         8         2         3         1         1         2      0.00057889
         8         2         3         1         1         3     -0.00095411
         8         2         3         1         1         4     -0.00070797
         8         3         1         3         1         1      0.00006386
         8         3         1         3         2         1     -0.00007448
         8         3         1         3         3         1     -0.00015167
         8         3         1         3         4         1      0.00020073
         8         3         3         1         1         1      0.00048306
         8         3         3         1         1         2     -0.00058479
         8         3         3         1         1         3     -0.00116137
         8         3         3         1         1         4      0.00142573
         8         4         1         3         1         1     -0.00018746
         8         4         1         3         2         1      0.00004565
         8         4         1         3         3         1     -0.00017027
         8         4         1         3         4         1     -0.00038437
         8         4         3         1         1         1      0.00029802
         8         4         3         1         1         2     -0.00056658
         8         4         3         1         1         3      0.00031985
         8         4         3         1         1         4      0.00051348
         8         5         1         3         1         1     -0.00005685
         8         5         1         3         2         1     -0.00000505
         8         5         1         3         3         1     -0.00019912
         8         5         1         3         4         1     -0.00005138
         8         5         3         1         1         1     -0.00011063
         8         5         3         1         1         2      0.00014138
         8         5         3         1         1         3      0.00084833
         8         5         3         1         1         4     -0.00046370
         9         1         1         3         1         1      0.00000979
         9         1         1         3         2         1     -0.00000553
         9         1         1         3         3         1      0.00001435
         9         1         1         3         4         1      0.00001441
         9         1         3         1         1         1     -0.00000170
         9         1         3         1         1         2      0.00000213
         9         1         3         1         1         3     -0.00000417
         9         1         3         1         1         4     -0.00000259
         9         2         1         3         1         1     -0.00024427
         9         2         1         3         2         1     -0.00007112
         9         2         1         3         3         1     -0.00012737
         9         2         1         3         4         1     -0.00030812
         9         2         3         1         1         1      0.00016369
         9         2         3         1         1         2     -0.00026285
         9         2         3         1         1         3      0.00038602
         9         2         3         1         1         4      0.00016738
         9         3         1         3         1         1      0.00007893
         9         3         1         3         2         1     -0.00000653
         9         3         1         3         3         1     -0.00009934
         9         3         1         3         4         1      0.00018339
         9         3         3         1         1         1     -0.00027070
         9         3         3         1         1         2      0.00034492
         9         3         3         1         1         3      0.00066635
         9         3         3         1         1         4     -0.00064461
         9         4         1         3         1         1     -0.00649915
         9         4         1         3         2         1      0.00207218
         9         4         1         3         3         1     -0.00495073
         9         4         1         3         4         1     -0.00672226
         9         4         3         1         1         1     -0.00979536
         9         4         3         1         1         2      0.01201928
         9         4         3         1         1         3     -0.00912140
         9         4         3         1         1         4     -0.00808463
         9         5         1         3         1         1     -0.00210997
         9         5         1         3         2         1      0.00103842
         9         5         1         3         3         1     -0.00914782
         9         5         1         3         4         1     -0.00049320
         9         5         3         1         1         1      0.00036625
         9         5         3         1         1         2     -0.00341832
         9         5         3         1         1         3     -0.02416736
         9         5         3         1         1         4      0.00270268
         8         6         2         3         1         1     -0.00022640
         8         6         3         2         1         1     -0.00175505
         8         7         2         3         1         1     -0.00015723
         8         7         3         2         1         1      0.00100329
         9         6         2         3         1         1     -0.00015723
         9         6         3         2         1         1      0.00100329
         9         7         2         3         1         1     -0.00788906
         9         7         3         2         1         1     -0.02872967


 RESULTS
 =======

  Reference energy                   -459.607908269998

  Correlated core orbitals:             1.1       2.1       3.1       1.2       1.3
  Orbital energies:                  -104.8410  -10.6098   -8.0875   -8.0661   -8.0661

  BCCD core-core energy                -0.001573508236
  BCCD core-valence energy             -0.000736668836
  BCCD valence correlation energy      -0.044665981562

  BCCD singlet pair energy             -0.035933697660
  BCCD triplet pair energy             -0.011042460975
  BCCD correlation energy              -0.046976158635

 !BCCD total energy                  -459.654884428633

 Approximate expectation values using Brueckner orbitals

 !BCCD(ref) STATE  1.1 Dipole momen     0.00000000     0.00000000    -0.63959973
 Dipole moment /Debye                   0.00000000     0.00000000    -1.62559387

 Brueckner orbitals saved on record           2150.2 (orbital set 1)
 Brueckner density (ref) saved on record      2150.2 (density set 1)

 Brueckner orbitals
 ==================

   Orb     Occ           Coefficients

                         1 1s      1 1s      2 1s      2 1s      2 1s      2 1s      2 2pz     2 2pz     2 2pz  

   1.1    2.0000000    0.000779 -0.001959  0.996516  0.012650 -0.004174  0.003470 -0.000179  0.000495 -0.000937

   2.1    2.0000000    0.000750  0.003317 -0.286668  1.030302  0.024344 -0.009851 -0.021915 -0.003048  0.002878

   3.1    2.0000000   -0.004330  0.000778 -0.006784  0.024957 -0.002329  0.001280  0.991855  0.023601 -0.006694

   4.1    2.0000000    0.346893  0.014581  0.073064 -0.342520  0.603886  0.176728  0.113996 -0.198131  0.004422

   5.1    2.0000000   -0.343800 -0.299373  0.036602 -0.163333  0.373845  0.544073 -0.244040  0.540750  0.057272

                         2 2px     2 2px     2 2px  

   1.2    2.0000000    0.993181  0.021681 -0.005469

   2.2    2.0000000   -0.282985  0.735662  0.401754

                         2 2py     2 2py     2 2py  

   1.3    2.0000000    0.993181  0.021681 -0.005469

   2.3    2.0000000   -0.282985  0.735662  0.401754

 Timing summary (sec):

 STEP                 CPU(USER)    SYS     CPU(TOT)    WALL
 Transformation          0.04      0.01      0.05      0.02
 CCSD iterations         0.05      0.01      0.06      0.09

 Program statistics:

 Available memory in ccsd:                39998876
 Min. memory needed in ccsd:                  5855
 Max. memory used in ccsd:                    5855
 Max. memory used in cckext:                 41348 (16 integral passes)



 **********************************************************************************************************************************
 DATASETS  * FILE   NREC   LENGTH (MB)   RECORD NAMES
              1      20       30.01       500      700      610      900      950      970     1000      129      960     1100   
                                          VAR     GEOM    BASINP   SYMINP    ZMAT    AOBASIS   BASIS     P2S    ABASIS      S 
                                         1400     1410     1200     1210     1080     1600     1650     1300     1700     1380   
                                           T        V       H0       H01     AOSYM     SMH    MOLCAS    ERIS     OPER     JKOP   

              2       4        2.74       700     1000      520     2150   
                                         GEOM     BASIS   MCVARS    BCCD   

              3       5       14.77       500      610      700     1000     2100   
                                          VAR    BASINP    GEOM     BASIS     RHF  

 PROGRAMS   *        TOTAL      BCCD       INT   RESTART
 CPU TIMES  *         0.41      0.17      0.11      0.01
 REAL TIME  *         0.57 SEC
 DISK USED  *        49.44 MB
 **********************************************************************************************************************************

 Dump information in style XML to orbitals.xml                                                                    

 Variables will not be exported.
 Molecular orbitals read from record     2150.2  Type=BCCD/BRUECKNER (state 1.1)
 Occupation numbers read from record     2150.2  Type=BCCD/BRUECKNER (state 1.1)

 No orbital energies found for orbital set 0

 No redundancy group numbers found for orbital set 0

 **********************************************************************************************************************************

 BCCD/6-31G energy=   -459.654884428633

            BCCD
   -459.65488443
 **********************************************************************************************************************************
 Molpro calculation terminated
