
 Primary working directories    : /scr/yuriaoto/job.023612/molpro.REDJ6mbA36
 Secondary working directories  : /scr/yuriaoto/job.023612/molpro.REDJ6mbA36
 Wavefunction directory         : /scr/yuriaoto/job.023612/
 Main file repository           : /scr/yuriaoto/job.023612/molpro.REDJ6mbA36/

 id        : yuriaoto

 Nodes             nprocs
 t-rex.ufabc.int.br    1

 Using customized tuning parameters: mindgm=8; mindgv=16; mindgc=1; mindgr=1; noblas=0; minvec=7
 default implementation of scratch files=df  


 Variables initialized (933), CPU time= 0.01 sec
 ***,
 memory,40,m
 gprint,orbital,basis,civector
 gthresh,thrprint=0,printci=0.0
 file,3,wfu.dat,old
 
 {ccsd,CC_NORM_MAX=10.0
 nosingle
 thresh,printci=0.0,ENERGY=1.0E-10,COEFF=1.0E-12
 print,ref=1
 core,0
 wf,18,1,0;
 }
 
 Commands  initialized (760), CPU time= 0.01 sec, 617 directives.
 Default parameters read. Elapsed time= 0.08 sec

 Checking input...
 Passed
1


                                         ***  PROGRAM SYSTEM MOLPRO  ***
                                       Copyright, TTI GmbH Stuttgart, 2015
                                    Version 2019.2 linked Abr  7 2019 15:10:35


 **********************************************************************************************************************************
 LABEL *                                                                                 
  64 bit serial version                                                                  DATE: 05-Jun-20          TIME: 21:37:42  
 **********************************************************************************************************************************

 SHA1:             3a8a58c585c929645742fb5a1b7541a4ad1da699
 **********************************************************************************************************************************


 THRESHOLDS:

 ZERO    =  1.00D-12  ONEINT  =  1.00D-12  TWOINT  =  1.00D-11  PREFAC  =  1.00D-14  XXXXXX  =  1.00D-09  EORDER  =  1.00D-04
 ENERGY  =  0.00D+00  ETEST   =  0.00D+00  EDENS   =  0.00D+00  THRDEDEF=  1.00D-06  GRADIENT=  1.00D-02  STEP    =  1.00D-03
 ORBITAL =  1.00D-05  CIVEC   =  1.00D-05  COEFF   =  1.00D-04  PRINTCI =  0.00D+00  PUNCHCI =  9.90D+01  OPTGRAD =  3.00D-04
 OPTENERG=  1.00D-06  OPTSTEP =  3.00D-04  THRGRAD =  1.00D-10  COMPRESS=  1.00D-11  VARMIN  =  1.00D-07  VARMAX  =  1.00D-03
 THRDOUB =  0.00D+00  THRDIV  =  1.00D-05  THRRED  =  1.00D-07  THRPSP  =  1.00D+00  THRDC   =  1.00D-10  THRCS   =  1.00D-10
 THRNRM  =  1.00D-08  THREQ   =  0.00D+00  THRDE   =  1.00D+00  THRREF  =  1.00D-05  SPARFAC =  1.00D+00  THRDLP  =  1.00D-07
 THRDIA  =  1.00D-10  THRDLS  =  1.00D-07  THRGPS  =  0.00D+00  THRKEX  =  0.00D+00  THRDIS  =  2.00D-01  THRVAR  =  1.00D-10
 THRLOC  =  1.00D-06  THRGAP  =  1.00D-06  THRLOCT = -1.00D+00  THRGAPT = -1.00D+00  THRORB  =  1.00D-06  THRMLTP =  0.00D+00
 THRCPQCI=  1.00D-10  KEXTA   =  0.00D+00  THRCOARS=  0.00D+00  SYMTOL  =  1.00D-06  GRADTOL =  1.00D-06  THROVL  =  1.00D-08
 THRORTH =  1.00D-08  GRID    =  1.00D-06  GRIDMAX =  1.00D-03  DTMAX   =  0.00D+00  THROCCDE=  1.00D-01  THROCCDE=  1.00D-01
 THRPRINT=  0.00D+00


 Variable memory set to   40000000 words,  buffer space 



 Permanent file  3  wfu.dat  assigned.  Implementation=df    Size= 14.08 MB


 PROGRAM * RESTART 


 Reading variables from file 3

 _FNUC           =      0.00000000
 _BASIS          =    6-31G
 _NELEC          =     18.00000000
 _PROGRAM        =    RHF-SCF
 _DMZ            =     -0.64056636
 _DMX_SCF        =      0.00000000
 _DMY_SCF        =      0.00000000
 _DMZ_SCF        =     -0.64056636
 _HOMO           =      2.20000000
 _EHOMO          =     -0.49295113
 _LUMO           =      6.10000000
 _ELUMO          =      0.32493986
 _ENERGY         =   -459.60831721
 _ENERGY_METHOD  =    RHF
 _ENERGY_BASIS   =    6-31G
 _ENUC           =     11.33333333
 _EPS1(1:9)      =   -104.81304705   -10.58851940    -8.06562948    -1.29348723    -0.68951886     0.32493986
                        0.41098157     0.59951917     1.47579847
 _EPS2(1:3)      =     -8.04437587    -0.49295113     0.61252577
 _EPS3(1:3)      =     -8.04437587    -0.49295113     0.61252577
 _IPROC_MPP      =      0.00000000
 _IPROC_MPPX     =      0.00000000
 _ORBITAL        =   2100.30000000
 _STATUS         =      1.00000000
 _DATE           =    31-May-20
 _LASTORB        =    RHF
 _OUTPUT         =    /scr/yuriaoto/job.023311/RHF.xml
 _PGROUP         =    C2v 
 _TIME           =    01:19:24
 R               =      1.50000000

 Geometry written to block  1 of record 700


 **********************************************************************************************************************************
 DATASETS  * FILE   NREC   LENGTH (MB)   RECORD NAMES
              3       5       14.77       500      610      700     1000     2100   
                                          VAR    BASINP    GEOM     BASIS     RHF  

 PROGRAMS   *        TOTAL   RESTART
 CPU TIMES  *         0.17      0.01
 REAL TIME  *         0.22 SEC
 DISK USED  *        26.84 MB
 **********************************************************************************************************************************


 Recomputing integrals since basis changed


 Using spherical harmonics

 Library entry H      S 6-31G                selected for orbital group  1
 Library entry CL     S 6-31G                selected for orbital group  2
 Library entry CL     P 6-31G                selected for orbital group  2


 PROGRAM * SEWARD (Integral evaluation for generally contracted gaussian basis sets)     Author: Roland Lindh, 1990

 Geometry written to block  1 of record 700

 Orientation using atomic masses  
 Molecule type: Linear
 User-specified symmetry elements: X,Y
 Symmetry elements: X,Y
 Rotational constants:     818.4131427    818.4131427      0.0000000 GHz  (calculated with average atomic masses)

 Point group  C2v 



 ATOMIC COORDINATES

 NR  ATOM    CHARGE       X              Y              Z

   1  H       1.00    0.000000000    0.000000000   -1.458533433
   2  CL     17.00    0.000000000    0.000000000    0.041466567

 Bond lengths in Bohr (Angstrom)

 1-2  1.500000000
     ( 0.793765816)


 BASIS DATA

   Nr Sym  Nuc  Type         Exponents   Contraction coefficients

    1.1 A1    1  1s          18.731137     0.033495
                              2.825394     0.234727
                              0.640122     0.813757
    2.1 A1    1  1s           0.161278     1.000000
    3.1 A1    2  1s       25180.100000     0.001833
                           3780.350000     0.014034
                            860.474000     0.069097
                            242.145000     0.237452
                             77.334900     0.483034
                             26.247000     0.339856
    4.1 A1    2  1s         491.765000    -0.002297
                            116.984000    -0.030714
                             37.415300    -0.112528
                             13.783400     0.045016
                              5.452150     0.589353
                              2.225880     0.465206
    5.1 A1    2  1s           3.186490    -0.251827
                              1.144270     0.061589
                              0.420377     1.060180
    6.1 A1    2  1s           0.142657     1.000000
    7.1 A1    2  2pz        491.765000     0.003989
                            116.984000     0.030318
                             37.415300     0.129880
                             13.783400     0.327951
                              5.452150     0.453527
                              2.225880     0.252154
    8.1 A1    2  2pz          3.186490    -0.014299
                              1.144270     0.323572
                              0.420377     0.743507
    9.1 A1    2  2pz          0.142657     1.000000
    1.2 B1    2  2px        491.765000     0.003989
                            116.984000     0.030318
                             37.415300     0.129880
                             13.783400     0.327951
                              5.452150     0.453527
                              2.225880     0.252154
    2.2 B1    2  2px          3.186490    -0.014299
                              1.144270     0.323572
                              0.420377     0.743507
    3.2 B1    2  2px          0.142657     1.000000
    1.3 B2    2  2py        491.765000     0.003989
                            116.984000     0.030318
                             37.415300     0.129880
                             13.783400     0.327951
                              5.452150     0.453527
                              2.225880     0.252154
    2.3 B2    2  2py          3.186490    -0.014299
                              1.144270     0.323572
                              0.420377     0.743507
    3.3 B2    2  2py          0.142657     1.000000

 NUCLEAR CHARGE:                   18
 NUMBER OF PRIMITIVE AOS:          50
 NUMBER OF SYMMETRY AOS:           50
 NUMBER OF CONTRACTIONS:           15   (    9A1  +    3B1  +    3B2  +    0A2  )
 NUMBER OF CORE ORBITALS:           5   (    3A1  +    1B1  +    1B2  +    0A2  )
 NUMBER OF VALENCE ORBITALS:        5   (    3A1  +    1B1  +    1B2  +    0A2  )


 NUCLEAR REPULSION ENERGY   11.33333333

 Eigenvalues of metric

         1 0.130E-01 0.193E+00 0.223E+00 0.485E+00 0.687E+00 0.973E+00 0.118E+01 0.187E+01
         2 0.323E+00 0.942E+00 0.174E+01
         3 0.323E+00 0.942E+00 0.174E+01


 Contracted 2-electron integrals neglected if value below      1.0D-11
 AO integral compression algorithm  1   Integral accuracy      1.0D-11

     0.262 MB (compressed) written to integral file (100.0%)


 NUMBER OF SORTED TWO-ELECTRON INTEGRALS:       2805.     BUFFER LENGTH:  32768
 NUMBER OF SEGMENTS:   1  SEGMENT LENGTH:       2805      RECORD LENGTH: 524288

 Memory used in sort:       0.56 MW

 SORT1 READ        5185. AND WROTE        2181. INTEGRALS IN      1 RECORDS. CPU TIME:     0.00 SEC, REAL TIME:     0.00 SEC
 SORT2 READ        2181. AND WROTE        2805. INTEGRALS IN      1 RECORDS. CPU TIME:     0.01 SEC, REAL TIME:     0.01 SEC

 FILE SIZES:   FILE 1:    30.2 MBYTE,  FILE 4:     4.2 MBYTE,   TOTAL:     34.4 MBYTE

 OPERATOR DM      FOR CENTER  0  COORDINATES:    0.000000    0.000000    0.000000


 **********************************************************************************************************************************
 DATASETS  * FILE   NREC   LENGTH (MB)   RECORD NAMES
              1      19       29.97       500      700      610      900      950      970     1000      129      960     1100   
                                          VAR     GEOM    BASINP   SYMINP    ZMAT    AOBASIS   BASIS     P2S    ABASIS      S 
                                         1400     1410     1200     1210     1080     1600     1650     1300     1700   
                                           T        V       H0       H01     AOSYM     SMH    MOLCAS    ERIS     OPER   

              3       5       14.77       500      610      700     1000     2100   
                                          VAR    BASINP    GEOM     BASIS     RHF  

 PROGRAMS   *        TOTAL       INT   RESTART
 CPU TIMES  *         0.33      0.15      0.01
 REAL TIME  *         0.47 SEC
 DISK USED  *        49.44 MB
 **********************************************************************************************************************************


 PROGRAM * CCSD (Closed-shell coupled cluster)     Authors: C. Hampel, H.-J. Werner, 1991, M. Deegan, P.J. Knowles, 1992


 Input parameters for THRESH:

 ENERGY   =    1.00D-10
 COEFF    =    1.00D-12
 PRINTCI  =    0.000000
 THRPRINT =    0.000000

 Convergence thresholds:  THRVAR = 1.00D-24  THRDEN = 1.00D-10

 Number of closed-shell orbitals:   9 (   5   2   2 )
 Number of external orbitals:       6 (   4   1   1 )

 Molecular orbitals read from record     2100.3  Type=RHF/CANONICAL (state 1.1)

 Number of N-1 electron functions:               0
 Number of N-2 electron functions:              45
 Number of singly external CSFs:                 0
 Number of doubly external CSFs:               492
 Total number of CSFs:                         493

 Length of J-op  integral file:               0.00 MB
 Length of K-op  integral file:               0.04 MB
 Length of 3-ext integral record:             0.00 MB

 Integral transformation finished. Total CPU:   0.01 sec, npass=  1  Memory used:   0.07 MW

 Reference energy:                   -459.60831721

 MP2 singlet pair energy:              -0.02869034
 MP2 triplet pair energy:              -0.01086841
 MP2 correlation energy:               -0.03955875
 MP2 total energy:                   -459.64787597

 SCS-MP2 correlation energy:           -0.04119097   (PS=  1.200000  PT=  0.333333)
 SCS-MP2 total energy:               -459.64950819

 ITER.      SQ.NORM     CORR.ENERGY   TOTAL ENERGY   ENERGY CHANGE        DEN1      VAR(S)    VAR(P)  DIIS     TIME  TIME/IT
   1      1.01777488    -0.04594419  -459.65426140    -0.00638544    -0.00498534  0.00D+00  0.33D-03  1  1     0.03     0.01
   2      1.01935210    -0.04636768  -459.65468489    -0.00042349    -0.00174905  0.00D+00  0.66D-05  2  2     0.04     0.01
   3      1.01945679    -0.04637329  -459.65469050    -0.00000561    -0.00007573  0.00D+00  0.46D-06  3  3     0.04     0.01
   4      1.01947337    -0.04637370  -459.65469091    -0.00000041    -0.00000332  0.00D+00  0.77D-08  4  4     0.05     0.01
   5      1.01947555    -0.04637384  -459.65469106    -0.00000015    -0.00000157  0.00D+00  0.14D-09  5  5     0.05     0.01
   6      1.01947568    -0.04637383  -459.65469105     0.00000001    -0.00000010  0.00D+00  0.94D-11  6  6     0.06     0.01
   7      1.01947566    -0.04637383  -459.65469104     0.00000000     0.00000003  0.00D+00  0.16D-12  6  1     0.06     0.01
   8      1.01947565    -0.04637383  -459.65469104     0.00000000     0.00000000  0.00D+00  0.70D-14  6  2     0.07     0.01
   9      1.01947565    -0.04637383  -459.65469104    -0.00000000     0.00000000  0.00D+00  0.20D-15  6  3     0.07     0.01
  10      1.01947565    -0.04637383  -459.65469104    -0.00000000     0.00000000  0.00D+00  0.61D-17  6  4     0.08     0.01
  11      1.01947565    -0.04637383  -459.65469104     0.00000000     0.00000000  0.00D+00  0.16D-18  6  5     0.08     0.01
  12      1.01947565    -0.04637383  -459.65469104     0.00000000     0.00000000  0.00D+00  0.71D-20  6  6     0.09     0.01
  13      1.01947565    -0.04637383  -459.65469104     0.00000000    -0.00000000  0.00D+00  0.23D-21  6  1     0.09     0.01
  14      1.01947565    -0.04637383  -459.65469104     0.00000000    -0.00000000  0.00D+00  0.11D-22  6  2     0.10     0.01
  15      1.01947565    -0.04637383  -459.65469104     0.00000000    -0.00000000  0.00D+00  0.42D-24  6  3     0.10     0.01


 Doubles amplitudes (print threshold =  0.000E+00):

         I         J         SYM. A    SYM. B    A         B      T(IJ, AB)

         1         1         1         1         1         1     -0.00000748
         1         1         1         1         1         2      0.00001284
         1         1         1         1         1         3     -0.00000677
         1         1         1         1         1         4     -0.00001911
         1         1         1         1         2         1      0.00001284
         1         1         1         1         2         2     -0.00001360
         1         1         1         1         2         3      0.00000800
         1         1         1         1         2         4      0.00002702
         1         1         1         1         3         1     -0.00000677
         1         1         1         1         3         2      0.00000800
         1         1         1         1         3         3     -0.00004777
         1         1         1         1         3         4      0.00000216
         1         1         1         1         4         1     -0.00001911
         1         1         1         1         4         2      0.00002702
         1         1         1         1         4         3      0.00000216
         1         1         1         1         4         4     -0.00004843
         1         1         2         2         1         1     -0.00004248
         1         1         3         3         1         1     -0.00004248
         2         1         1         1         1         1      0.00000243
         2         1         1         1         1         2     -0.00000125
         2         1         1         1         1         3      0.00001502
         2         1         1         1         1         4     -0.00000178
         2         1         1         1         2         1     -0.00000129
         2         1         1         1         2         2      0.00000340
         2         1         1         1         2         3     -0.00001950
         2         1         1         1         2         4      0.00000352
         2         1         1         1         3         1      0.00001425
         2         1         1         1         3         2     -0.00001856
         2         1         1         1         3         3      0.00000476
         2         1         1         1         3         4      0.00003262
         2         1         1         1         4         1     -0.00000060
         2         1         1         1         4         2      0.00000213
         2         1         1         1         4         3      0.00003285
         2         1         1         1         4         4     -0.00001454
         2         1         2         2         1         1     -0.00003454
         2         1         3         3         1         1     -0.00003454
         2         2         1         1         1         1     -0.00013003
         2         2         1         1         1         2      0.00019279
         2         2         1         1         1         3     -0.00018802
         2         2         1         1         1         4     -0.00025492
         2         2         1         1         2         1      0.00019279
         2         2         1         1         2         2     -0.00021748
         2         2         1         1         2         3      0.00022679
         2         2         1         1         2         4      0.00032788
         2         2         1         1         3         1     -0.00018802
         2         2         1         1         3         2      0.00022679
         2         2         1         1         3         3     -0.00062164
         2         2         1         1         3         4     -0.00018752
         2         2         1         1         4         1     -0.00025492
         2         2         1         1         4         2      0.00032788
         2         2         1         1         4         3     -0.00018752
         2         2         1         1         4         4     -0.00051415
         2         2         2         2         1         1     -0.00033355
         2         2         3         3         1         1     -0.00033355
         3         1         1         1         1         1      0.00000194
         3         1         1         1         1         2     -0.00000219
         3         1         1         1         1         3     -0.00001610
         3         1         1         1         1         4      0.00001052
         3         1         1         1         2         1     -0.00000112
         3         1         1         1         2         2      0.00000144
         3         1         1         1         2         3      0.00001759
         3         1         1         1         2         4     -0.00000963
         3         1         1         1         3         1      0.00001534
         3         1         1         1         3         2     -0.00001951
         3         1         1         1         3         3     -0.00000655
         3         1         1         1         3         4      0.00003861
         3         1         1         1         4         1     -0.00000148
         3         1         1         1         4         2      0.00000189
         3         1         1         1         4         3     -0.00003635
         3         1         1         1         4         4      0.00001045
         3         1         2         2         1         1     -0.00000081
         3         1         3         3         1         1     -0.00000081
         3         2         1         1         1         1      0.00017254
         3         2         1         1         1         2     -0.00020279
         3         2         1         1         1         3      0.00017598
         3         2         1         1         1         4      0.00028488
         3         2         1         1         2         1     -0.00020505
         3         2         1         1         2         2      0.00026347
         3         2         1         1         2         3     -0.00019191
         3         2         1         1         2         4     -0.00039234
         3         2         1         1         3         1     -0.00021267
         3         2         1         1         3         2      0.00027726
         3         2         1         1         3         3     -0.00081605
         3         2         1         1         3         4     -0.00018157
         3         2         1         1         4         1      0.00041991
         3         2         1         1         4         2     -0.00054166
         3         2         1         1         4         3      0.00065254
         3         2         1         1         4         4      0.00066126
         3         2         2         2         1         1      0.00000210
         3         2         3         3         1         1      0.00000210
         3         3         1         1         1         1     -0.00015468
         3         3         1         1         1         2      0.00028254
         3         3         1         1         1         3      0.00027096
         3         3         1         1         1         4     -0.00052084
         3         3         1         1         2         1      0.00028254
         3         3         1         1         2         2     -0.00032587
         3         3         1         1         2         3     -0.00031363
         3         3         1         1         2         4      0.00069119
         3         3         1         1         3         1      0.00027096
         3         3         1         1         3         2     -0.00031363
         3         3         1         1         3         3     -0.00121179
         3         3         1         1         3         4      0.00099048
         3         3         1         1         4         1     -0.00052084
         3         3         1         1         4         2      0.00069119
         3         3         1         1         4         3      0.00099048
         3         3         1         1         4         4     -0.00149846
         3         3         2         2         1         1     -0.00019828
         3         3         3         3         1         1     -0.00019828
         4         1         1         1         1         1      0.00000006
         4         1         1         1         1         2     -0.00000167
         4         1         1         1         1         3     -0.00000733
         4         1         1         1         1         4      0.00000456
         4         1         1         1         2         1     -0.00000271
         4         1         1         1         2         2      0.00000143
         4         1         1         1         2         3      0.00001233
         4         1         1         1         2         4     -0.00000976
         4         1         1         1         3         1     -0.00000373
         4         1         1         1         3         2      0.00000550
         4         1         1         1         3         3      0.00000249
         4         1         1         1         3         4     -0.00001042
         4         1         1         1         4         1      0.00000155
         4         1         1         1         4         2     -0.00000295
         4         1         1         1         4         3     -0.00001612
         4         1         1         1         4         4      0.00001027
         4         1         2         2         1         1      0.00002309
         4         1         3         3         1         1      0.00002309
         4         2         1         1         1         1      0.00006981
         4         2         1         1         1         2     -0.00009759
         4         2         1         1         1         3      0.00019341
         4         2         1         1         1         4     -0.00001602
         4         2         1         1         2         1     -0.00007113
         4         2         1         1         2         2     -0.00000007
         4         2         1         1         2         3     -0.00037021
         4         2         1         1         2         4     -0.00007675
         4         2         1         1         3         1      0.00010798
         4         2         1         1         3         2     -0.00017961
         4         2         1         1         3         3      0.00004994
         4         2         1         1         3         4      0.00020588
         4         2         1         1         4         1      0.00011696
         4         2         1         1         4         2     -0.00031012
         4         2         1         1         4         3      0.00028820
         4         2         1         1         4         4     -0.00004411
         4         2         2         2         1         1     -0.00033900
         4         2         3         3         1         1     -0.00033900
         4         3         1         1         1         1     -0.00015123
         4         3         1         1         1         2      0.00014370
         4         3         1         1         1         3      0.00035130
         4         3         1         1         1         4     -0.00031996
         4         3         1         1         2         1      0.00013778
         4         3         1         1         2         2      0.00018609
         4         3         1         1         2         3     -0.00032860
         4         3         1         1         2         4      0.00053301
         4         3         1         1         3         1     -0.00007447
         4         3         1         1         3         2      0.00027664
         4         3         1         1         3         3      0.00010600
         4         3         1         1         3         4     -0.00008152
         4         3         1         1         4         1     -0.00028198
         4         3         1         1         4         2      0.00051061
         4         3         1         1         4         3      0.00062396
         4         3         1         1         4         4     -0.00047177
         4         3         2         2         1         1      0.00004162
         4         3         3         3         1         1      0.00004162
         4         4         1         1         1         1     -0.00792787
         4         4         1         1         1         2      0.00305633
         4         4         1         1         1         3     -0.00183975
         4         4         1         1         1         4     -0.01072826
         4         4         1         1         2         1      0.00305633
         4         4         1         1         2         2     -0.01348750
         4         4         1         1         2         3      0.00048846
         4         4         1         1         2         4     -0.00423475
         4         4         1         1         3         1     -0.00183975
         4         4         1         1         3         2      0.00048846
         4         4         1         1         3         3     -0.00381148
         4         4         1         1         3         4     -0.00270715
         4         4         1         1         4         1     -0.01072826
         4         4         1         1         4         2     -0.00423475
         4         4         1         1         4         3     -0.00270715
         4         4         1         1         4         4     -0.02232095
         4         4         2         2         1         1     -0.00659396
         4         4         3         3         1         1     -0.00659396
         5         1         1         1         1         1     -0.00000017
         5         1         1         1         1         2     -0.00000102
         5         1         1         1         1         3     -0.00000157
         5         1         1         1         1         4      0.00000114
         5         1         1         1         2         1      0.00000205
         5         1         1         1         2         2     -0.00000305
         5         1         1         1         2         3     -0.00000525
         5         1         1         1         2         4      0.00000676
         5         1         1         1         3         1     -0.00000736
         5         1         1         1         3         2      0.00000954
         5         1         1         1         3         3      0.00000843
         5         1         1         1         3         4     -0.00002051
         5         1         1         1         4         1      0.00000308
         5         1         1         1         4         2     -0.00000528
         5         1         1         1         4         3     -0.00000451
         5         1         1         1         4         4      0.00000935
         5         1         2         2         1         1      0.00001182
         5         1         3         3         1         1      0.00001182
         5         2         1         1         1         1     -0.00009354
         5         2         1         1         1         2      0.00009377
         5         2         1         1         1         3      0.00013534
         5         2         1         1         1         4     -0.00022529
         5         2         1         1         2         1     -0.00002530
         5         2         1         1         2         2      0.00012167
         5         2         1         1         2         3      0.00020971
         5         2         1         1         2         4     -0.00007811
         5         2         1         1         3         1      0.00026716
         5         2         1         1         3         2     -0.00026177
         5         2         1         1         3         3      0.00017415
         5         2         1         1         3         4      0.00053724
         5         2         1         1         4         1     -0.00023001
         5         2         1         1         4         2      0.00034536
         5         2         1         1         4         3      0.00013120
         5         2         1         1         4         4     -0.00046521
         5         2         2         2         1         1     -0.00018662
         5         2         3         3         1         1     -0.00018662
         5         3         1         1         1         1     -0.00000907
         5         3         1         1         1         2     -0.00022401
         5         3         1         1         1         3      0.00022898
         5         3         1         1         1         4     -0.00013686
         5         3         1         1         2         1     -0.00005748
         5         3         1         1         2         2     -0.00026927
         5         3         1         1         2         3      0.00020394
         5         3         1         1         2         4     -0.00030012
         5         3         1         1         3         1     -0.00015125
         5         3         1         1         3         2      0.00041168
         5         3         1         1         3         3      0.00028189
         5         3         1         1         3         4     -0.00027851
         5         3         1         1         4         1      0.00011905
         5         3         1         1         4         2     -0.00066472
         5         3         1         1         4         3      0.00011054
         5         3         1         1         4         4     -0.00008246
         5         3         2         2         1         1     -0.00010128
         5         3         3         3         1         1     -0.00010128
         5         4         1         1         1         1      0.00482844
         5         4         1         1         1         2      0.00075963
         5         4         1         1         1         3      0.00073523
         5         4         1         1         1         4      0.00696919
         5         4         1         1         2         1     -0.00144344
         5         4         1         1         2         2      0.00950559
         5         4         1         1         2         3      0.00206895
         5         4         1         1         2         4      0.00514272
         5         4         1         1         3         1     -0.00473634
         5         4         1         1         3         2      0.00698439
         5         4         1         1         3         3     -0.01012329
         5         4         1         1         3         4     -0.00118703
         5         4         1         1         4         1      0.00670432
         5         4         1         1         4         2      0.00835325
         5         4         1         1         4         3      0.00442396
         5         4         1         1         4         4      0.01547961
         5         4         2         2         1         1     -0.00400397
         5         4         3         3         1         1     -0.00400397
         5         5         1         1         1         1     -0.02242839
         5         5         1         1         1         2     -0.00715054
         5         5         1         1         1         3      0.00298947
         5         5         1         1         1         4     -0.01566427
         5         5         1         1         2         1     -0.00715054
         5         5         1         1         2         2     -0.00979907
         5         5         1         1         2         3     -0.00101948
         5         5         1         1         2         4     -0.01079062
         5         5         1         1         3         1      0.00298947
         5         5         1         1         3         2     -0.00101948
         5         5         1         1         3         3     -0.03024619
         5         5         1         1         3         4      0.00872747
         5         5         1         1         4         1     -0.01566427
         5         5         1         1         4         2     -0.01079062
         5         5         1         1         4         3      0.00872747
         5         5         1         1         4         4     -0.02264481
         5         5         2         2         1         1     -0.00540798
         5         5         3         3         1         1     -0.00540798
         6         6         1         1         1         1     -0.00005336
         6         6         1         1         1         2      0.00010804
         6         6         1         1         1         3     -0.00009704
         6         6         1         1         1         4     -0.00013719
         6         6         1         1         2         1      0.00010804
         6         6         1         1         2         2     -0.00007532
         6         6         1         1         2         3      0.00009278
         6         6         1         1         2         4      0.00017355
         6         6         1         1         3         1     -0.00009704
         6         6         1         1         3         2      0.00009278
         6         6         1         1         3         3     -0.00033112
         6         6         1         1         3         4     -0.00007950
         6         6         1         1         4         1     -0.00013719
         6         6         1         1         4         2      0.00017355
         6         6         1         1         4         3     -0.00007950
         6         6         1         1         4         4     -0.00030528
         6         6         2         2         1         1     -0.00213819
         6         6         3         3         1         1     -0.00019508
         7         6         1         1         1         1     -0.00013828
         7         6         1         1         1         2      0.00004714
         7         6         1         1         1         3     -0.00011107
         7         6         1         1         1         4     -0.00028443
         7         6         1         1         2         1     -0.00005498
         7         6         1         1         2         2      0.00003113
         7         6         1         1         2         3     -0.00007807
         7         6         1         1         2         4     -0.00005164
         7         6         1         1         3         1     -0.00002327
         7         6         1         1         3         2     -0.00002788
         7         6         1         1         3         3     -0.00008557
         7         6         1         1         3         4     -0.00003175
         7         6         1         1         4         1     -0.00018906
         7         6         1         1         4         2      0.00008129
         7         6         1         1         4         3     -0.00009147
         7         6         1         1         4         4     -0.00042892
         7         6         2         2         1         1      0.00071382
         7         6         3         3         1         1     -0.00011948
         7         7         1         1         1         1     -0.00917718
         7         7         1         1         1         2     -0.00398303
         7         7         1         1         1         3     -0.00068076
         7         7         1         1         1         4     -0.00617009
         7         7         1         1         2         1     -0.00398303
         7         7         1         1         2         2     -0.01242642
         7         7         1         1         2         3      0.00712088
         7         7         1         1         2         4     -0.00090833
         7         7         1         1         3         1     -0.00068076
         7         7         1         1         3         2      0.00712088
         7         7         1         1         3         3     -0.01062400
         7         7         1         1         3         4     -0.00124101
         7         7         1         1         4         1     -0.00617009
         7         7         1         1         4         2     -0.00090833
         7         7         1         1         4         3     -0.00124101
         7         7         1         1         4         4     -0.00581320
         7         7         2         2         1         1     -0.04016064
         7         7         3         3         1         1     -0.00377795
         8         8         1         1         1         1     -0.00005336
         8         8         1         1         1         2      0.00010804
         8         8         1         1         1         3     -0.00009704
         8         8         1         1         1         4     -0.00013719
         8         8         1         1         2         1      0.00010804
         8         8         1         1         2         2     -0.00007532
         8         8         1         1         2         3      0.00009278
         8         8         1         1         2         4      0.00017355
         8         8         1         1         3         1     -0.00009704
         8         8         1         1         3         2      0.00009278
         8         8         1         1         3         3     -0.00033112
         8         8         1         1         3         4     -0.00007950
         8         8         1         1         4         1     -0.00013719
         8         8         1         1         4         2      0.00017355
         8         8         1         1         4         3     -0.00007950
         8         8         1         1         4         4     -0.00030528
         8         8         2         2         1         1     -0.00019508
         8         8         3         3         1         1     -0.00213819
         9         8         1         1         1         1     -0.00013828
         9         8         1         1         1         2      0.00004714
         9         8         1         1         1         3     -0.00011107
         9         8         1         1         1         4     -0.00028443
         9         8         1         1         2         1     -0.00005498
         9         8         1         1         2         2      0.00003113
         9         8         1         1         2         3     -0.00007807
         9         8         1         1         2         4     -0.00005164
         9         8         1         1         3         1     -0.00002327
         9         8         1         1         3         2     -0.00002788
         9         8         1         1         3         3     -0.00008557
         9         8         1         1         3         4     -0.00003175
         9         8         1         1         4         1     -0.00018906
         9         8         1         1         4         2      0.00008129
         9         8         1         1         4         3     -0.00009147
         9         8         1         1         4         4     -0.00042892
         9         8         2         2         1         1     -0.00011948
         9         8         3         3         1         1      0.00071382
         9         9         1         1         1         1     -0.00917718
         9         9         1         1         1         2     -0.00398303
         9         9         1         1         1         3     -0.00068076
         9         9         1         1         1         4     -0.00617009
         9         9         1         1         2         1     -0.00398303
         9         9         1         1         2         2     -0.01242642
         9         9         1         1         2         3      0.00712088
         9         9         1         1         2         4     -0.00090833
         9         9         1         1         3         1     -0.00068076
         9         9         1         1         3         2      0.00712088
         9         9         1         1         3         3     -0.01062400
         9         9         1         1         3         4     -0.00124101
         9         9         1         1         4         1     -0.00617009
         9         9         1         1         4         2     -0.00090833
         9         9         1         1         4         3     -0.00124101
         9         9         1         1         4         4     -0.00581320
         9         9         2         2         1         1     -0.00377795
         9         9         3         3         1         1     -0.04016064
         6         1         1         2         1         1     -0.00001417
         6         1         1         2         2         1      0.00001964
         6         1         1         2         3         1     -0.00003221
         6         1         1         2         4         1     -0.00002018
         6         1         2         1         1         1      0.00001031
         6         1         2         1         1         2     -0.00001254
         6         1         2         1         1         3      0.00002173
         6         1         2         1         1         4      0.00001565
         6         2         1         2         1         1     -0.00015106
         6         2         1         2         2         1      0.00017174
         6         2         1         2         3         1     -0.00030011
         6         2         1         2         4         1     -0.00024217
         6         2         2         1         1         1     -0.00046927
         6         2         2         1         1         2      0.00056967
         6         2         2         1         1         3     -0.00093717
         6         2         2         1         1         4     -0.00070288
         6         3         1         2         1         1      0.00006304
         6         3         1         2         2         1     -0.00007310
         6         3         1         2         3         1     -0.00014882
         6         3         1         2         4         1      0.00019870
         6         3         2         1         1         1      0.00047582
         6         3         2         1         1         2     -0.00057278
         6         3         2         1         1         3     -0.00113940
         6         3         2         1         1         4      0.00140952
         6         4         1         2         1         1     -0.00018559
         6         4         1         2         2         1      0.00004479
         6         4         1         2         3         1     -0.00016734
         6         4         1         2         4         1     -0.00038069
         6         4         2         1         1         1      0.00029394
         6         4         2         1         1         2     -0.00055630
         6         4         2         1         1         3      0.00031489
         6         4         2         1         1         4      0.00050684
         6         5         1         2         1         1     -0.00005627
         6         5         1         2         2         1     -0.00000512
         6         5         1         2         3         1     -0.00019654
         6         5         1         2         4         1     -0.00005066
         6         5         2         1         1         1     -0.00010921
         6         5         2         1         1         2      0.00013866
         6         5         2         1         1         3      0.00083538
         6         5         2         1         1         4     -0.00046066
         7         1         1         2         1         1      0.00000976
         7         1         1         2         2         1     -0.00000548
         7         1         1         2         3         1      0.00001417
         7         1         1         2         4         1      0.00001439
         7         1         2         1         1         1     -0.00000173
         7         1         2         1         1         2      0.00000216
         7         1         2         1         1         3     -0.00000419
         7         1         2         1         1         4     -0.00000262
         7         2         1         2         1         1     -0.00024475
         7         2         1         2         2         1     -0.00006967
         7         2         1         2         3         1     -0.00012662
         7         2         1         2         4         1     -0.00030980
         7         2         2         1         1         1      0.00016392
         7         2         2         1         1         2     -0.00026073
         7         2         2         1         1         3      0.00038217
         7         2         2         1         1         4      0.00016826
         7         3         1         2         1         1      0.00007827
         7         3         1         2         2         1     -0.00000650
         7         3         1         2         3         1     -0.00009862
         7         3         1         2         4         1      0.00018270
         7         3         2         1         1         1     -0.00026828
         7         3         2         1         1         2      0.00033916
         7         3         2         1         1         3      0.00065734
         7         3         2         1         1         4     -0.00064222
         7         4         1         2         1         1     -0.00648085
         7         4         1         2         2         1      0.00206576
         7         4         1         2         3         1     -0.00489812
         7         4         1         2         4         1     -0.00670749
         7         4         2         1         1         1     -0.00978430
         7         4         2         1         1         2      0.01192618
         7         4         2         1         1         3     -0.00905497
         7         4         2         1         1         4     -0.00806376
         7         5         1         2         1         1     -0.00210752
         7         5         1         2         2         1      0.00104736
         7         5         1         2         3         1     -0.00906597
         7         5         1         2         4         1     -0.00049551
         7         5         2         1         1         1      0.00035236
         7         5         2         1         1         2     -0.00336353
         7         5         2         1         1         3     -0.02400269
         7         5         2         1         1         4      0.00271403
         8         1         1         3         1         1     -0.00001417
         8         1         1         3         2         1      0.00001964
         8         1         1         3         3         1     -0.00003221
         8         1         1         3         4         1     -0.00002018
         8         1         3         1         1         1      0.00001031
         8         1         3         1         1         2     -0.00001254
         8         1         3         1         1         3      0.00002173
         8         1         3         1         1         4      0.00001565
         8         2         1         3         1         1     -0.00015106
         8         2         1         3         2         1      0.00017174
         8         2         1         3         3         1     -0.00030011
         8         2         1         3         4         1     -0.00024217
         8         2         3         1         1         1     -0.00046927
         8         2         3         1         1         2      0.00056967
         8         2         3         1         1         3     -0.00093717
         8         2         3         1         1         4     -0.00070288
         8         3         1         3         1         1      0.00006304
         8         3         1         3         2         1     -0.00007310
         8         3         1         3         3         1     -0.00014882
         8         3         1         3         4         1      0.00019870
         8         3         3         1         1         1      0.00047582
         8         3         3         1         1         2     -0.00057278
         8         3         3         1         1         3     -0.00113940
         8         3         3         1         1         4      0.00140952
         8         4         1         3         1         1     -0.00018559
         8         4         1         3         2         1      0.00004479
         8         4         1         3         3         1     -0.00016734
         8         4         1         3         4         1     -0.00038069
         8         4         3         1         1         1      0.00029394
         8         4         3         1         1         2     -0.00055630
         8         4         3         1         1         3      0.00031489
         8         4         3         1         1         4      0.00050684
         8         5         1         3         1         1     -0.00005627
         8         5         1         3         2         1     -0.00000512
         8         5         1         3         3         1     -0.00019654
         8         5         1         3         4         1     -0.00005066
         8         5         3         1         1         1     -0.00010921
         8         5         3         1         1         2      0.00013866
         8         5         3         1         1         3      0.00083538
         8         5         3         1         1         4     -0.00046066
         9         1         1         3         1         1      0.00000976
         9         1         1         3         2         1     -0.00000548
         9         1         1         3         3         1      0.00001417
         9         1         1         3         4         1      0.00001439
         9         1         3         1         1         1     -0.00000173
         9         1         3         1         1         2      0.00000216
         9         1         3         1         1         3     -0.00000419
         9         1         3         1         1         4     -0.00000262
         9         2         1         3         1         1     -0.00024475
         9         2         1         3         2         1     -0.00006967
         9         2         1         3         3         1     -0.00012662
         9         2         1         3         4         1     -0.00030980
         9         2         3         1         1         1      0.00016392
         9         2         3         1         1         2     -0.00026073
         9         2         3         1         1         3      0.00038217
         9         2         3         1         1         4      0.00016826
         9         3         1         3         1         1      0.00007827
         9         3         1         3         2         1     -0.00000650
         9         3         1         3         3         1     -0.00009862
         9         3         1         3         4         1      0.00018270
         9         3         3         1         1         1     -0.00026828
         9         3         3         1         1         2      0.00033916
         9         3         3         1         1         3      0.00065734
         9         3         3         1         1         4     -0.00064222
         9         4         1         3         1         1     -0.00648085
         9         4         1         3         2         1      0.00206576
         9         4         1         3         3         1     -0.00489812
         9         4         1         3         4         1     -0.00670749
         9         4         3         1         1         1     -0.00978430
         9         4         3         1         1         2      0.01192618
         9         4         3         1         1         3     -0.00905497
         9         4         3         1         1         4     -0.00806376
         9         5         1         3         1         1     -0.00210752
         9         5         1         3         2         1      0.00104736
         9         5         1         3         3         1     -0.00906597
         9         5         1         3         4         1     -0.00049551
         9         5         3         1         1         1      0.00035236
         9         5         3         1         1         2     -0.00336353
         9         5         3         1         1         3     -0.02400269
         9         5         3         1         1         4      0.00271403
         8         6         2         3         1         1     -0.00022213
         8         6         3         2         1         1     -0.00172098
         8         7         2         3         1         1     -0.00015573
         8         7         3         2         1         1      0.00098903
         9         6         2         3         1         1     -0.00015573
         9         6         3         2         1         1      0.00098903
         9         7         2         3         1         1     -0.00781762
         9         7         3         2         1         1     -0.02856507


 RESULTS
 =======

  Reference energy                   -459.608317213086

  Correlated core orbitals:             1.1       2.1       3.1       1.2       1.3
  Orbital energies:                  -104.8130  -10.5885   -8.0656   -8.0444   -8.0444

  CCD core-core energy                 -0.001526449114
  CCD core-valence energy              -0.000719273481
  CCD valence correlation energy       -0.044128108787

  CCD singlet pair energy              -0.035526689211
  CCD triplet pair energy              -0.010847142170
  CCD correlation energy               -0.046373831382

 !CCD total energy                   -459.654691044467

 Timing summary (sec):

 STEP                 CPU(USER)    SYS     CPU(TOT)    WALL
 Transformation          0.01      0.00      0.01      0.01
 CCSD iterations         0.10      0.02      0.12      0.12

 Program statistics:

 Available memory in ccsd:                39998876
 Min. memory needed in ccsd:                  5855
 Max. memory used in ccsd:                    5855
 Max. memory used in cckext:                 41348 (15 integral passes)



 **********************************************************************************************************************************
 DATASETS  * FILE   NREC   LENGTH (MB)   RECORD NAMES
              1      20       30.02       500      700      610      900      950      970     1000      129      960     1100   
                                          VAR     GEOM    BASINP   SYMINP    ZMAT    AOBASIS   BASIS     P2S    ABASIS      S 
                                         1400     1410     1200     1210     1080     1600     1650     1300     1700     1380   
                                           T        V       H0       H01     AOSYM     SMH    MOLCAS    ERIS     OPER     JKOP   

              3       5       14.77       500      610      700     1000     2100   
                                          VAR    BASINP    GEOM     BASIS     RHF  

 PROGRAMS   *        TOTAL      CCSD       INT   RESTART
 CPU TIMES  *         0.51      0.18      0.15      0.01
 REAL TIME  *         0.67 SEC
 DISK USED  *        49.44 MB
 **********************************************************************************************************************************
 Molecular orbitals read from record     2100.3  Type=RHF/CANONICAL (state 1.1)
 Occupation numbers read from record     2100.3  Type=RHF/RHF (state 1.1)
 Orbital energies read from record       2100.3  Type=RHF/CANONICAL (state 1.1)
 Redundancy group numbers read from rec  2100.3  Type=RHF/RHF (state 1.1)

 CCSD/6-31G energy=   -459.654691044467

            CCSD
   -459.65469104
 **********************************************************************************************************************************
 Molpro calculation terminated
