
 Primary working directories    : /scr/yuriaoto/job.023407/molpro.CXlF79GPfr
 Secondary working directories  : /scr/yuriaoto/job.023407/molpro.CXlF79GPfr
 Wavefunction directory         : /scr/yuriaoto/job.023407/
 Main file repository           : /scr/yuriaoto/job.023407/molpro.CXlF79GPfr/

 id        : yuriaoto

 Nodes             nprocs
 t-rex.ufabc.int.br    1

 Using customized tuning parameters: mindgm=8; mindgv=16; mindgc=1; mindgr=1; noblas=0; minvec=7
 default implementation of scratch files=df  


 Variables initialized (933), CPU time= 0.00 sec
 ***,
 memory,40,m
 gprint,orbital,basis,civector
 gthresh,thrprint=0,printci=0.0
 file,3,wfu.dat,old
 
 {ccsd,CC_NORM_MAX=10.0
 thresh,printci=0.0,ENERGY=1.0E-10,COEFF=1.0E-12
 print,ref=1
 core,0
 wf,18,1,0;
 }
 
 Commands  initialized (760), CPU time= 0.01 sec, 617 directives.
 Default parameters read. Elapsed time= 0.06 sec

 Checking input...
 Passed
1


                                         ***  PROGRAM SYSTEM MOLPRO  ***
                                       Copyright, TTI GmbH Stuttgart, 2015
                                    Version 2019.2 linked Abr  7 2019 15:10:35


 **********************************************************************************************************************************
 LABEL *                                                                                 
  64 bit serial version                                                                  DATE: 02-Jun-20          TIME: 00:21:29  
 **********************************************************************************************************************************

 SHA1:             3a8a58c585c929645742fb5a1b7541a4ad1da699
 **********************************************************************************************************************************


 THRESHOLDS:

 ZERO    =  1.00D-12  ONEINT  =  1.00D-12  TWOINT  =  1.00D-11  PREFAC  =  1.00D-14  XXXXXX  =  1.00D-09  EORDER  =  1.00D-04
 ENERGY  =  0.00D+00  ETEST   =  0.00D+00  EDENS   =  0.00D+00  THRDEDEF=  1.00D-06  GRADIENT=  1.00D-02  STEP    =  1.00D-03
 ORBITAL =  1.00D-05  CIVEC   =  1.00D-05  COEFF   =  1.00D-04  PRINTCI =  0.00D+00  PUNCHCI =  9.90D+01  OPTGRAD =  3.00D-04
 OPTENERG=  1.00D-06  OPTSTEP =  3.00D-04  THRGRAD =  1.00D-10  COMPRESS=  1.00D-11  VARMIN  =  1.00D-07  VARMAX  =  1.00D-03
 THRDOUB =  0.00D+00  THRDIV  =  1.00D-05  THRRED  =  1.00D-07  THRPSP  =  1.00D+00  THRDC   =  1.00D-10  THRCS   =  1.00D-10
 THRNRM  =  1.00D-08  THREQ   =  0.00D+00  THRDE   =  1.00D+00  THRREF  =  1.00D-05  SPARFAC =  1.00D+00  THRDLP  =  1.00D-07
 THRDIA  =  1.00D-10  THRDLS  =  1.00D-07  THRGPS  =  0.00D+00  THRKEX  =  0.00D+00  THRDIS  =  2.00D-01  THRVAR  =  1.00D-10
 THRLOC  =  1.00D-06  THRGAP  =  1.00D-06  THRLOCT = -1.00D+00  THRGAPT = -1.00D+00  THRORB  =  1.00D-06  THRMLTP =  0.00D+00
 THRCPQCI=  1.00D-10  KEXTA   =  0.00D+00  THRCOARS=  0.00D+00  SYMTOL  =  1.00D-06  GRADTOL =  1.00D-06  THROVL  =  1.00D-08
 THRORTH =  1.00D-08  GRID    =  1.00D-06  GRIDMAX =  1.00D-03  DTMAX   =  0.00D+00  THROCCDE=  1.00D-01  THROCCDE=  1.00D-01
 THRPRINT=  0.00D+00


 Variable memory set to   40000000 words,  buffer space 



 Permanent file  3  wfu.dat  assigned.  Implementation=df    Size= 14.08 MB


 PROGRAM * RESTART 


 Reading variables from file 3

 _FNUC           =      0.00000000
 _BASIS          =    6-31G
 _NELEC          =     18.00000000
 _PROGRAM        =    RHF-SCF
 _DMZ            =     -0.64056636
 _DMX_SCF        =      0.00000000
 _DMY_SCF        =      0.00000000
 _DMZ_SCF        =     -0.64056636
 _HOMO           =      2.20000000
 _EHOMO          =     -0.49295113
 _LUMO           =      6.10000000
 _ELUMO          =      0.32493986
 _ENERGY         =   -459.60831721
 _ENERGY_METHOD  =    RHF
 _ENERGY_BASIS   =    6-31G
 _ENUC           =     11.33333333
 _EPS1(1:9)      =   -104.81304705   -10.58851940    -8.06562948    -1.29348723    -0.68951886     0.32493986
                        0.41098157     0.59951917     1.47579847
 _EPS2(1:3)      =     -8.04437587    -0.49295113     0.61252577
 _EPS3(1:3)      =     -8.04437587    -0.49295113     0.61252577
 _IPROC_MPP      =      0.00000000
 _IPROC_MPPX     =      0.00000000
 _ORBITAL        =   2100.30000000
 _STATUS         =      1.00000000
 _DATE           =    31-May-20
 _LASTORB        =    RHF
 _OUTPUT         =    /scr/yuriaoto/job.023311/RHF.xml
 _PGROUP         =    C2v 
 _TIME           =    01:19:24
 R               =      1.50000000

 Geometry written to block  1 of record 700


 **********************************************************************************************************************************
 DATASETS  * FILE   NREC   LENGTH (MB)   RECORD NAMES
              3       5       14.77       500      610      700     1000     2100   
                                          VAR    BASINP    GEOM     BASIS     RHF  

 PROGRAMS   *        TOTAL   RESTART
 CPU TIMES  *         0.15      0.01
 REAL TIME  *         0.18 SEC
 DISK USED  *        26.84 MB
 **********************************************************************************************************************************


 Recomputing integrals since basis changed


 Using spherical harmonics

 Library entry H      S 6-31G                selected for orbital group  1
 Library entry CL     S 6-31G                selected for orbital group  2
 Library entry CL     P 6-31G                selected for orbital group  2


 PROGRAM * SEWARD (Integral evaluation for generally contracted gaussian basis sets)     Author: Roland Lindh, 1990

 Geometry written to block  1 of record 700

 Orientation using atomic masses  
 Molecule type: Linear
 User-specified symmetry elements: X,Y
 Symmetry elements: X,Y
 Rotational constants:     818.4131427    818.4131427      0.0000000 GHz  (calculated with average atomic masses)

 Point group  C2v 



 ATOMIC COORDINATES

 NR  ATOM    CHARGE       X              Y              Z

   1  H       1.00    0.000000000    0.000000000   -1.458533433
   2  CL     17.00    0.000000000    0.000000000    0.041466567

 Bond lengths in Bohr (Angstrom)

 1-2  1.500000000
     ( 0.793765816)


 BASIS DATA

   Nr Sym  Nuc  Type         Exponents   Contraction coefficients

    1.1 A1    1  1s          18.731137     0.033495
                              2.825394     0.234727
                              0.640122     0.813757
    2.1 A1    1  1s           0.161278     1.000000
    3.1 A1    2  1s       25180.100000     0.001833
                           3780.350000     0.014034
                            860.474000     0.069097
                            242.145000     0.237452
                             77.334900     0.483034
                             26.247000     0.339856
    4.1 A1    2  1s         491.765000    -0.002297
                            116.984000    -0.030714
                             37.415300    -0.112528
                             13.783400     0.045016
                              5.452150     0.589353
                              2.225880     0.465206
    5.1 A1    2  1s           3.186490    -0.251827
                              1.144270     0.061589
                              0.420377     1.060180
    6.1 A1    2  1s           0.142657     1.000000
    7.1 A1    2  2pz        491.765000     0.003989
                            116.984000     0.030318
                             37.415300     0.129880
                             13.783400     0.327951
                              5.452150     0.453527
                              2.225880     0.252154
    8.1 A1    2  2pz          3.186490    -0.014299
                              1.144270     0.323572
                              0.420377     0.743507
    9.1 A1    2  2pz          0.142657     1.000000
    1.2 B1    2  2px        491.765000     0.003989
                            116.984000     0.030318
                             37.415300     0.129880
                             13.783400     0.327951
                              5.452150     0.453527
                              2.225880     0.252154
    2.2 B1    2  2px          3.186490    -0.014299
                              1.144270     0.323572
                              0.420377     0.743507
    3.2 B1    2  2px          0.142657     1.000000
    1.3 B2    2  2py        491.765000     0.003989
                            116.984000     0.030318
                             37.415300     0.129880
                             13.783400     0.327951
                              5.452150     0.453527
                              2.225880     0.252154
    2.3 B2    2  2py          3.186490    -0.014299
                              1.144270     0.323572
                              0.420377     0.743507
    3.3 B2    2  2py          0.142657     1.000000

 NUCLEAR CHARGE:                   18
 NUMBER OF PRIMITIVE AOS:          50
 NUMBER OF SYMMETRY AOS:           50
 NUMBER OF CONTRACTIONS:           15   (    9A1  +    3B1  +    3B2  +    0A2  )
 NUMBER OF CORE ORBITALS:           5   (    3A1  +    1B1  +    1B2  +    0A2  )
 NUMBER OF VALENCE ORBITALS:        5   (    3A1  +    1B1  +    1B2  +    0A2  )


 NUCLEAR REPULSION ENERGY   11.33333333

 Eigenvalues of metric

         1 0.130E-01 0.193E+00 0.223E+00 0.485E+00 0.687E+00 0.973E+00 0.118E+01 0.187E+01
         2 0.323E+00 0.942E+00 0.174E+01
         3 0.323E+00 0.942E+00 0.174E+01


 Contracted 2-electron integrals neglected if value below      1.0D-11
 AO integral compression algorithm  1   Integral accuracy      1.0D-11

     0.262 MB (compressed) written to integral file (100.0%)


 NUMBER OF SORTED TWO-ELECTRON INTEGRALS:       2805.     BUFFER LENGTH:  32768
 NUMBER OF SEGMENTS:   1  SEGMENT LENGTH:       2805      RECORD LENGTH: 524288

 Memory used in sort:       0.56 MW

 SORT1 READ        5185. AND WROTE        2181. INTEGRALS IN      1 RECORDS. CPU TIME:     0.00 SEC, REAL TIME:     0.00 SEC
 SORT2 READ        2181. AND WROTE        2805. INTEGRALS IN      1 RECORDS. CPU TIME:     0.01 SEC, REAL TIME:     0.00 SEC

 FILE SIZES:   FILE 1:    30.2 MBYTE,  FILE 4:     4.2 MBYTE,   TOTAL:     34.4 MBYTE

 OPERATOR DM      FOR CENTER  0  COORDINATES:    0.000000    0.000000    0.000000


 **********************************************************************************************************************************
 DATASETS  * FILE   NREC   LENGTH (MB)   RECORD NAMES
              1      19       29.97       500      700      610      900      950      970     1000      129      960     1100   
                                          VAR     GEOM    BASINP   SYMINP    ZMAT    AOBASIS   BASIS     P2S    ABASIS      S 
                                         1400     1410     1200     1210     1080     1600     1650     1300     1700   
                                           T        V       H0       H01     AOSYM     SMH    MOLCAS    ERIS     OPER   

              3       5       14.77       500      610      700     1000     2100   
                                          VAR    BASINP    GEOM     BASIS     RHF  

 PROGRAMS   *        TOTAL       INT   RESTART
 CPU TIMES  *         0.32      0.18      0.01
 REAL TIME  *         0.48 SEC
 DISK USED  *        49.44 MB
 **********************************************************************************************************************************


 PROGRAM * CCSD (Closed-shell coupled cluster)     Authors: C. Hampel, H.-J. Werner, 1991, M. Deegan, P.J. Knowles, 1992


 Input parameters for THRESH:

 ENERGY   =    1.00D-10
 COEFF    =    1.00D-12
 PRINTCI  =    0.000000
 THRPRINT =    0.000000

 Convergence thresholds:  THRVAR = 1.00D-24  THRDEN = 1.00D-10

 Number of closed-shell orbitals:   9 (   5   2   2 )
 Number of external orbitals:       6 (   4   1   1 )

 Molecular orbitals read from record     2100.3  Type=RHF/CANONICAL (state 1.1)

 Number of N-1 electron functions:               9
 Number of N-2 electron functions:              45
 Number of singly external CSFs:                24
 Number of doubly external CSFs:               492
 Total number of CSFs:                         517

 Length of J-op  integral file:               0.00 MB
 Length of K-op  integral file:               0.04 MB
 Length of 3-ext integral record:             0.00 MB

 Integral transformation finished. Total CPU:   0.00 sec, npass=  1  Memory used:   0.07 MW

 Reference energy:                   -459.60831721

 MP2 singlet pair energy:              -0.02869034
 MP2 triplet pair energy:              -0.01086841
 MP2 correlation energy:               -0.03955875
 MP2 total energy:                   -459.64787597

 SCS-MP2 correlation energy:           -0.04119097   (PS=  1.200000  PT=  0.333333)
 SCS-MP2 total energy:               -459.64950819

 ITER.      SQ.NORM     CORR.ENERGY   TOTAL ENERGY   ENERGY CHANGE        DEN1      VAR(S)    VAR(P)  DIIS     TIME  TIME/IT
   1      1.01792783    -0.04620147  -459.65451868    -0.00664271    -0.00495840  0.18D-03  0.33D-03  1  1     0.02     0.01
   2      1.01983161    -0.04666346  -459.65498068    -0.00046200    -0.00194854  0.21D-05  0.85D-05  2  2     0.03     0.01
   3      1.02006922    -0.04665979  -459.65497700     0.00000368    -0.00018289  0.11D-06  0.67D-06  3  3     0.03     0.01
   4      1.02010020    -0.04665979  -459.65497700    -0.00000000    -0.00001237  0.94D-08  0.88D-08  4  4     0.04     0.01
   5      1.02010032    -0.04666081  -459.65497802    -0.00000102    -0.00000004  0.32D-09  0.26D-09  5  5     0.04     0.01
   6      1.02010008    -0.04666085  -459.65497806    -0.00000004     0.00000016  0.22D-10  0.11D-10  6  6     0.05     0.01
   7      1.02010008    -0.04666083  -459.65497804     0.00000002     0.00000001  0.67D-12  0.44D-12  6  3     0.06     0.01
   8      1.02010009    -0.04666082  -459.65497804     0.00000000    -0.00000000  0.19D-13  0.26D-13  6  1     0.06     0.01
   9      1.02010009    -0.04666082  -459.65497804    -0.00000000    -0.00000000  0.46D-15  0.56D-15  6  2     0.07     0.01
  10      1.02010009    -0.04666082  -459.65497804    -0.00000000     0.00000000  0.37D-16  0.34D-16  6  4     0.07     0.01
  11      1.02010009    -0.04666082  -459.65497804     0.00000000    -0.00000000  0.17D-17  0.19D-17  6  5     0.08     0.01
  12      1.02010009    -0.04666082  -459.65497804     0.00000000    -0.00000000  0.49D-19  0.76D-19  6  6     0.08     0.01
  13      1.02010009    -0.04666082  -459.65497804    -0.00000000    -0.00000000  0.69D-21  0.24D-20  6  3     0.08     0.01
  14      1.02010009    -0.04666082  -459.65497804    -0.00000000    -0.00000000  0.50D-22  0.71D-22  6  1     0.09     0.01
  15      1.02010009    -0.04666082  -459.65497804     0.00000000     0.00000000  0.60D-23  0.44D-23  6  2     0.09     0.01
  16      1.02010009    -0.04666082  -459.65497804     0.00000000    -0.00000000  0.23D-24  0.20D-24  6  4     0.10     0.01

 Norm of t1 vector:      0.01921218      S-energy:    -0.00000000      T1 diagnostic:  0.00320203
                                                                       D1 diagnostic:  0.00781534

 Singles amplitudes (print threshold =  0.000E+00):

         I         SYM. A    A   T(IA)

         1         1         1      0.00000109
         1         1         2     -0.00000143
         1         1         3      0.00000330
         1         1         4      0.00000123
         2         1         1     -0.00011995
         2         1         2      0.00011334
         2         1         3     -0.00021075
         2         1         4     -0.00013025
         3         1         1      0.00019070
         3         1         2     -0.00019382
         3         1         3     -0.00037057
         3         1         4      0.00034388
         4         1         1     -0.00001458
         4         1         2     -0.00330915
         4         1         3      0.00180349
         4         1         4     -0.00063580
         5         1         1     -0.00095452
         5         1         2      0.00211721
         5         1         3      0.00637655
         5         1         4     -0.00114680
         6         2         1     -0.00060031
         7         2         1      0.00779225
         8         3         1     -0.00060031
         9         3         1      0.00779225

 Doubles amplitudes (print threshold =  0.000E+00):

         I         J         SYM. A    SYM. B    A         B      T(IJ, AB)

         1         1         1         1         1         1     -0.00000751
         1         1         1         1         1         2      0.00001296
         1         1         1         1         1         3     -0.00000678
         1         1         1         1         1         4     -0.00001918
         1         1         1         1         2         1      0.00001296
         1         1         1         1         2         2     -0.00001384
         1         1         1         1         2         3      0.00000808
         1         1         1         1         2         4      0.00002727
         1         1         1         1         3         1     -0.00000678
         1         1         1         1         3         2      0.00000808
         1         1         1         1         3         3     -0.00004866
         1         1         1         1         3         4      0.00000230
         1         1         1         1         4         1     -0.00001918
         1         1         1         1         4         2      0.00002727
         1         1         1         1         4         3      0.00000230
         1         1         1         1         4         4     -0.00004855
         1         1         2         2         1         1     -0.00004334
         1         1         3         3         1         1     -0.00004334
         2         1         1         1         1         1      0.00000239
         2         1         1         1         1         2     -0.00000121
         2         1         1         1         1         3      0.00001521
         2         1         1         1         1         4     -0.00000189
         2         1         1         1         2         1     -0.00000126
         2         1         1         1         2         2      0.00000339
         2         1         1         1         2         3     -0.00001986
         2         1         1         1         2         4      0.00000366
         2         1         1         1         3         1      0.00001443
         2         1         1         1         3         2     -0.00001891
         2         1         1         1         3         3      0.00000478
         2         1         1         1         3         4      0.00003300
         2         1         1         1         4         1     -0.00000069
         2         1         1         1         4         2      0.00000224
         2         1         1         1         4         3      0.00003321
         2         1         1         1         4         4     -0.00001473
         2         1         2         2         1         1     -0.00003535
         2         1         3         3         1         1     -0.00003535
         2         2         1         1         1         1     -0.00013030
         2         2         1         1         1         2      0.00019458
         2         2         1         1         1         3     -0.00018949
         2         2         1         1         1         4     -0.00025533
         2         2         1         1         2         1      0.00019458
         2         2         1         1         2         2     -0.00022115
         2         2         1         1         2         3      0.00023041
         2         2         1         1         2         4      0.00033051
         2         2         1         1         3         1     -0.00018949
         2         2         1         1         3         2      0.00023041
         2         2         1         1         3         3     -0.00063354
         2         2         1         1         3         4     -0.00018827
         2         2         1         1         4         1     -0.00025533
         2         2         1         1         4         2      0.00033051
         2         2         1         1         4         3     -0.00018827
         2         2         1         1         4         4     -0.00051443
         2         2         2         2         1         1     -0.00034027
         2         2         3         3         1         1     -0.00034027
         3         1         1         1         1         1      0.00000195
         3         1         1         1         1         2     -0.00000221
         3         1         1         1         1         3     -0.00001629
         3         1         1         1         1         4      0.00001054
         3         1         1         1         2         1     -0.00000115
         3         1         1         1         2         2      0.00000147
         3         1         1         1         2         3      0.00001792
         3         1         1         1         2         4     -0.00000973
         3         1         1         1         3         1      0.00001554
         3         1         1         1         3         2     -0.00001989
         3         1         1         1         3         3     -0.00000669
         3         1         1         1         3         4      0.00003902
         3         1         1         1         4         1     -0.00000146
         3         1         1         1         4         2      0.00000190
         3         1         1         1         4         3     -0.00003671
         3         1         1         1         4         4      0.00001047
         3         1         2         2         1         1     -0.00000083
         3         1         3         3         1         1     -0.00000083
         3         2         1         1         1         1      0.00017399
         3         2         1         1         1         2     -0.00020571
         3         2         1         1         1         3      0.00017921
         3         2         1         1         1         4      0.00028628
         3         2         1         1         2         1     -0.00020771
         3         2         1         1         2         2      0.00026862
         3         2         1         1         2         3     -0.00019693
         3         2         1         1         2         4     -0.00039633
         3         2         1         1         3         1     -0.00021466
         3         2         1         1         3         2      0.00028195
         3         2         1         1         3         3     -0.00083230
         3         2         1         1         3         4     -0.00018270
         3         2         1         1         4         1      0.00042147
         3         2         1         1         4         2     -0.00054735
         3         2         1         1         4         3      0.00066056
         3         2         1         1         4         4      0.00066234
         3         2         2         2         1         1      0.00000212
         3         2         3         3         1         1      0.00000212
         3         3         1         1         1         1     -0.00015608
         3         3         1         1         1         2      0.00028691
         3         3         1         1         1         3      0.00027672
         3         3         1         1         1         4     -0.00052502
         3         3         1         1         2         1      0.00028691
         3         3         1         1         2         2     -0.00033304
         3         3         1         1         2         3     -0.00032194
         3         3         1         1         2         4      0.00070057
         3         3         1         1         3         1      0.00027672
         3         3         1         1         3         2     -0.00032194
         3         3         1         1         3         3     -0.00123633
         3         3         1         1         3         4      0.00100443
         3         3         1         1         4         1     -0.00052502
         3         3         1         1         4         2      0.00070057
         3         3         1         1         4         3      0.00100443
         3         3         1         1         4         4     -0.00150566
         3         3         2         2         1         1     -0.00020229
         3         3         3         3         1         1     -0.00020229
         4         1         1         1         1         1      0.00000009
         4         1         1         1         1         2     -0.00000171
         4         1         1         1         1         3     -0.00000741
         4         1         1         1         1         4      0.00000462
         4         1         1         1         2         1     -0.00000277
         4         1         1         1         2         2      0.00000151
         4         1         1         1         2         3      0.00001254
         4         1         1         1         2         4     -0.00000989
         4         1         1         1         3         1     -0.00000376
         4         1         1         1         3         2      0.00000558
         4         1         1         1         3         3      0.00000257
         4         1         1         1         3         4     -0.00001051
         4         1         1         1         4         1      0.00000160
         4         1         1         1         4         2     -0.00000300
         4         1         1         1         4         3     -0.00001627
         4         1         1         1         4         4      0.00001036
         4         1         2         2         1         1      0.00002355
         4         1         3         3         1         1      0.00002355
         4         2         1         1         1         1      0.00007050
         4         2         1         1         1         2     -0.00009864
         4         2         1         1         1         3      0.00019530
         4         2         1         1         1         4     -0.00001582
         4         2         1         1         2         1     -0.00007168
         4         2         1         1         2         2      0.00000069
         4         2         1         1         2         3     -0.00037661
         4         2         1         1         2         4     -0.00007659
         4         2         1         1         3         1      0.00010854
         4         2         1         1         3         2     -0.00018230
         4         2         1         1         3         3      0.00005105
         4         2         1         1         3         4      0.00020634
         4         2         1         1         4         1      0.00011776
         4         2         1         1         4         2     -0.00031258
         4         2         1         1         4         3      0.00029047
         4         2         1         1         4         4     -0.00004320
         4         2         2         2         1         1     -0.00034342
         4         2         3         3         1         1     -0.00034342
         4         3         1         1         1         1     -0.00015345
         4         3         1         1         1         2      0.00014677
         4         3         1         1         1         3      0.00035617
         4         3         1         1         1         4     -0.00032216
         4         3         1         1         2         1      0.00014079
         4         3         1         1         2         2      0.00018626
         4         3         1         1         2         3     -0.00033633
         4         3         1         1         2         4      0.00053866
         4         3         1         1         3         1     -0.00007562
         4         3         1         1         3         2      0.00028218
         4         3         1         1         3         3      0.00010912
         4         3         1         1         3         4     -0.00008188
         4         3         1         1         4         1     -0.00028521
         4         3         1         1         4         2      0.00051591
         4         3         1         1         4         3      0.00063118
         4         3         1         1         4         4     -0.00047595
         4         3         2         2         1         1      0.00004277
         4         3         3         3         1         1      0.00004277
         4         4         1         1         1         1     -0.00791273
         4         4         1         1         1         2      0.00307986
         4         4         1         1         1         3     -0.00186250
         4         4         1         1         1         4     -0.01069378
         4         4         1         1         2         1      0.00307986
         4         4         1         1         2         2     -0.01366740
         4         4         1         1         2         3      0.00047002
         4         4         1         1         2         4     -0.00424591
         4         4         1         1         3         1     -0.00186250
         4         4         1         1         3         2      0.00047002
         4         4         1         1         3         3     -0.00386624
         4         4         1         1         3         4     -0.00276214
         4         4         1         1         4         1     -0.01069378
         4         4         1         1         4         2     -0.00424591
         4         4         1         1         4         3     -0.00276214
         4         4         1         1         4         4     -0.02222187
         4         4         2         2         1         1     -0.00673244
         4         4         3         3         1         1     -0.00673244
         5         1         1         1         1         1     -0.00000015
         5         1         1         1         1         2     -0.00000105
         5         1         1         1         1         3     -0.00000162
         5         1         1         1         1         4      0.00000120
         5         1         1         1         2         1      0.00000207
         5         1         1         1         2         2     -0.00000309
         5         1         1         1         2         3     -0.00000530
         5         1         1         1         2         4      0.00000677
         5         1         1         1         3         1     -0.00000740
         5         1         1         1         3         2      0.00000965
         5         1         1         1         3         3      0.00000858
         5         1         1         1         3         4     -0.00002060
         5         1         1         1         4         1      0.00000309
         5         1         1         1         4         2     -0.00000534
         5         1         1         1         4         3     -0.00000459
         5         1         1         1         4         4      0.00000937
         5         1         2         2         1         1      0.00001203
         5         1         3         3         1         1      0.00001203
         5         2         1         1         1         1     -0.00009428
         5         2         1         1         1         2      0.00009560
         5         2         1         1         1         3      0.00013730
         5         2         1         1         1         4     -0.00022686
         5         2         1         1         2         1     -0.00002502
         5         2         1         1         2         2      0.00012289
         5         2         1         1         2         3      0.00021207
         5         2         1         1         2         4     -0.00007750
         5         2         1         1         3         1      0.00026817
         5         2         1         1         3         2     -0.00026436
         5         2         1         1         3         3      0.00017901
         5         2         1         1         3         4      0.00053805
         5         2         1         1         4         1     -0.00022976
         5         2         1         1         4         2      0.00034770
         5         2         1         1         4         3      0.00013156
         5         2         1         1         4         4     -0.00046419
         5         2         2         2         1         1     -0.00018868
         5         2         3         3         1         1     -0.00018868
         5         3         1         1         1         1     -0.00000795
         5         3         1         1         1         2     -0.00022766
         5         3         1         1         1         3      0.00023177
         5         3         1         1         1         4     -0.00013789
         5         3         1         1         2         1     -0.00005836
         5         3         1         1         2         2     -0.00027095
         5         3         1         1         2         3      0.00020657
         5         3         1         1         2         4     -0.00030178
         5         3         1         1         3         1     -0.00015367
         5         3         1         1         3         2      0.00041855
         5         3         1         1         3         3      0.00028969
         5         3         1         1         3         4     -0.00028141
         5         3         1         1         4         1      0.00012082
         5         3         1         1         4         2     -0.00066967
         5         3         1         1         4         3      0.00010977
         5         3         1         1         4         4     -0.00008133
         5         3         2         2         1         1     -0.00010209
         5         3         3         3         1         1     -0.00010209
         5         4         1         1         1         1      0.00486490
         5         4         1         1         1         2      0.00078977
         5         4         1         1         1         3      0.00079001
         5         4         1         1         1         4      0.00697592
         5         4         1         1         2         1     -0.00146158
         5         4         1         1         2         2      0.00964285
         5         4         1         1         2         3      0.00210422
         5         4         1         1         2         4      0.00517611
         5         4         1         1         3         1     -0.00474504
         5         4         1         1         3         2      0.00708442
         5         4         1         1         3         3     -0.01022117
         5         4         1         1         3         4     -0.00116053
         5         4         1         1         4         1      0.00668844
         5         4         1         1         4         2      0.00845975
         5         4         1         1         4         3      0.00450075
         5         4         1         1         4         4      0.01542896
         5         4         2         2         1         1     -0.00407407
         5         4         3         3         1         1     -0.00407407
         5         5         1         1         1         1     -0.02275188
         5         5         1         1         1         2     -0.00720045
         5         5         1         1         1         3      0.00301719
         5         5         1         1         1         4     -0.01574118
         5         5         1         1         2         1     -0.00720045
         5         5         1         1         2         2     -0.00990716
         5         5         1         1         2         3     -0.00111374
         5         5         1         1         2         4     -0.01084555
         5         5         1         1         3         1      0.00301719
         5         5         1         1         3         2     -0.00111374
         5         5         1         1         3         3     -0.03055109
         5         5         1         1         3         4      0.00872563
         5         5         1         1         4         1     -0.01574118
         5         5         1         1         4         2     -0.01084555
         5         5         1         1         4         3      0.00872563
         5         5         1         1         4         4     -0.02263399
         5         5         2         2         1         1     -0.00548540
         5         5         3         3         1         1     -0.00548540
         6         6         1         1         1         1     -0.00005359
         6         6         1         1         1         2      0.00010887
         6         6         1         1         1         3     -0.00009759
         6         6         1         1         1         4     -0.00013752
         6         6         1         1         2         1      0.00010887
         6         6         1         1         2         2     -0.00007672
         6         6         1         1         2         3      0.00009423
         6         6         1         1         2         4      0.00017481
         6         6         1         1         3         1     -0.00009759
         6         6         1         1         3         2      0.00009423
         6         6         1         1         3         3     -0.00033743
         6         6         1         1         3         4     -0.00007948
         6         6         1         1         4         1     -0.00013752
         6         6         1         1         4         2      0.00017481
         6         6         1         1         4         3     -0.00007948
         6         6         1         1         4         4     -0.00030555
         6         6         2         2         1         1     -0.00218547
         6         6         3         3         1         1     -0.00019904
         7         6         1         1         1         1     -0.00013730
         7         6         1         1         1         2      0.00004758
         7         6         1         1         1         3     -0.00011129
         7         6         1         1         1         4     -0.00028298
         7         6         1         1         2         1     -0.00005515
         7         6         1         1         2         2      0.00003248
         7         6         1         1         2         3     -0.00007982
         7         6         1         1         2         4     -0.00005185
         7         6         1         1         3         1     -0.00002359
         7         6         1         1         3         2     -0.00002840
         7         6         1         1         3         3     -0.00008612
         7         6         1         1         3         4     -0.00003218
         7         6         1         1         4         1     -0.00018747
         7         6         1         1         4         2      0.00008145
         7         6         1         1         4         3     -0.00009104
         7         6         1         1         4         4     -0.00042551
         7         6         2         2         1         1      0.00072949
         7         6         3         3         1         1     -0.00012042
         7         7         1         1         1         1     -0.00909886
         7         7         1         1         1         2     -0.00397398
         7         7         1         1         1         3     -0.00069034
         7         7         1         1         1         4     -0.00608414
         7         7         1         1         2         1     -0.00397398
         7         7         1         1         2         2     -0.01256592
         7         7         1         1         2         3      0.00717539
         7         7         1         1         2         4     -0.00087383
         7         7         1         1         3         1     -0.00069034
         7         7         1         1         3         2      0.00717539
         7         7         1         1         3         3     -0.01072881
         7         7         1         1         3         4     -0.00125351
         7         7         1         1         4         1     -0.00608414
         7         7         1         1         4         2     -0.00087383
         7         7         1         1         4         3     -0.00125351
         7         7         1         1         4         4     -0.00572826
         7         7         2         2         1         1     -0.04053905
         7         7         3         3         1         1     -0.00382585
         8         8         1         1         1         1     -0.00005359
         8         8         1         1         1         2      0.00010887
         8         8         1         1         1         3     -0.00009759
         8         8         1         1         1         4     -0.00013752
         8         8         1         1         2         1      0.00010887
         8         8         1         1         2         2     -0.00007672
         8         8         1         1         2         3      0.00009423
         8         8         1         1         2         4      0.00017481
         8         8         1         1         3         1     -0.00009759
         8         8         1         1         3         2      0.00009423
         8         8         1         1         3         3     -0.00033743
         8         8         1         1         3         4     -0.00007948
         8         8         1         1         4         1     -0.00013752
         8         8         1         1         4         2      0.00017481
         8         8         1         1         4         3     -0.00007948
         8         8         1         1         4         4     -0.00030555
         8         8         2         2         1         1     -0.00019904
         8         8         3         3         1         1     -0.00218547
         9         8         1         1         1         1     -0.00013730
         9         8         1         1         1         2      0.00004758
         9         8         1         1         1         3     -0.00011129
         9         8         1         1         1         4     -0.00028298
         9         8         1         1         2         1     -0.00005515
         9         8         1         1         2         2      0.00003248
         9         8         1         1         2         3     -0.00007982
         9         8         1         1         2         4     -0.00005185
         9         8         1         1         3         1     -0.00002359
         9         8         1         1         3         2     -0.00002840
         9         8         1         1         3         3     -0.00008612
         9         8         1         1         3         4     -0.00003218
         9         8         1         1         4         1     -0.00018747
         9         8         1         1         4         2      0.00008145
         9         8         1         1         4         3     -0.00009104
         9         8         1         1         4         4     -0.00042551
         9         8         2         2         1         1     -0.00012042
         9         8         3         3         1         1      0.00072949
         9         9         1         1         1         1     -0.00909886
         9         9         1         1         1         2     -0.00397398
         9         9         1         1         1         3     -0.00069034
         9         9         1         1         1         4     -0.00608414
         9         9         1         1         2         1     -0.00397398
         9         9         1         1         2         2     -0.01256592
         9         9         1         1         2         3      0.00717539
         9         9         1         1         2         4     -0.00087383
         9         9         1         1         3         1     -0.00069034
         9         9         1         1         3         2      0.00717539
         9         9         1         1         3         3     -0.01072881
         9         9         1         1         3         4     -0.00125351
         9         9         1         1         4         1     -0.00608414
         9         9         1         1         4         2     -0.00087383
         9         9         1         1         4         3     -0.00125351
         9         9         1         1         4         4     -0.00572826
         9         9         2         2         1         1     -0.00382585
         9         9         3         3         1         1     -0.04053905
         6         1         1         2         1         1     -0.00001431
         6         1         1         2         2         1      0.00001998
         6         1         1         2         3         1     -0.00003284
         6         1         1         2         4         1     -0.00002035
         6         1         2         1         1         1      0.00001040
         6         1         2         1         1         2     -0.00001276
         6         1         2         1         1         3      0.00002215
         6         1         2         1         1         4      0.00001577
         6         2         1         2         1         1     -0.00015259
         6         2         1         2         2         1      0.00017501
         6         2         1         2         3         1     -0.00030618
         6         2         1         2         4         1     -0.00024410
         6         2         2         1         1         1     -0.00047461
         6         2         2         1         1         2      0.00058047
         6         2         2         1         1         3     -0.00095663
         6         2         2         1         1         4     -0.00070941
         6         3         1         2         1         1      0.00006404
         6         3         1         2         2         1     -0.00007469
         6         3         1         2         3         1     -0.00015181
         6         3         1         2         4         1      0.00020108
         6         3         2         1         1         1      0.00048443
         6         3         2         1         1         2     -0.00058660
         6         3         2         1         1         3     -0.00116432
         6         3         2         1         1         4      0.00142891
         6         4         1         2         1         1     -0.00018750
         6         4         1         2         2         1      0.00004568
         6         4         1         2         3         1     -0.00017052
         6         4         1         2         4         1     -0.00038466
         6         4         2         1         1         1      0.00029955
         6         4         2         1         1         2     -0.00056909
         6         4         2         1         1         3      0.00032140
         6         4         2         1         1         4      0.00051518
         6         5         1         2         1         1     -0.00005689
         6         5         1         2         2         1     -0.00000507
         6         5         1         2         3         1     -0.00019916
         6         5         1         2         4         1     -0.00005146
         6         5         2         1         1         1     -0.00011083
         6         5         2         1         1         2      0.00014205
         6         5         2         1         1         3      0.00085176
         6         5         2         1         1         4     -0.00046450
         7         1         1         2         1         1      0.00000979
         7         1         1         2         2         1     -0.00000553
         7         1         1         2         3         1      0.00001436
         7         1         1         2         4         1      0.00001441
         7         1         2         1         1         1     -0.00000171
         7         1         2         1         1         2      0.00000215
         7         1         2         1         1         3     -0.00000419
         7         1         2         1         1         4     -0.00000260
         7         2         1         2         1         1     -0.00024424
         7         2         1         2         2         1     -0.00007132
         7         2         1         2         3         1     -0.00012730
         7         2         1         2         4         1     -0.00030798
         7         2         2         1         1         1      0.00016448
         7         2         2         1         1         2     -0.00026379
         7         2         2         1         1         3      0.00038766
         7         2         2         1         1         4      0.00016791
         7         3         1         2         1         1      0.00007896
         7         3         1         2         2         1     -0.00000657
         7         3         1         2         3         1     -0.00009926
         7         3         1         2         4         1      0.00018347
         7         3         2         1         1         1     -0.00027165
         7         3         2         1         1         2      0.00034632
         7         3         2         1         1         3      0.00066871
         7         3         2         1         1         4     -0.00064590
         7         4         1         2         1         1     -0.00651028
         7         4         1         2         2         1      0.00207623
         7         4         1         2         3         1     -0.00496159
         7         4         1         2         4         1     -0.00672754
         7         4         2         1         1         1     -0.00982332
         7         4         2         1         1         2      0.01206424
         7         4         2         1         1         3     -0.00914861
         7         4         2         1         1         4     -0.00809196
         7         5         1         2         1         1     -0.00211553
         7         5         1         2         2         1      0.00104104
         7         5         1         2         3         1     -0.00916136
         7         5         1         2         4         1     -0.00049438
         7         5         2         1         1         1      0.00036670
         7         5         2         1         1         2     -0.00343718
         7         5         2         1         1         3     -0.02423955
         7         5         2         1         1         4      0.00269991
         8         1         1         3         1         1     -0.00001431
         8         1         1         3         2         1      0.00001998
         8         1         1         3         3         1     -0.00003284
         8         1         1         3         4         1     -0.00002035
         8         1         3         1         1         1      0.00001040
         8         1         3         1         1         2     -0.00001276
         8         1         3         1         1         3      0.00002215
         8         1         3         1         1         4      0.00001577
         8         2         1         3         1         1     -0.00015259
         8         2         1         3         2         1      0.00017501
         8         2         1         3         3         1     -0.00030618
         8         2         1         3         4         1     -0.00024410
         8         2         3         1         1         1     -0.00047461
         8         2         3         1         1         2      0.00058047
         8         2         3         1         1         3     -0.00095663
         8         2         3         1         1         4     -0.00070941
         8         3         1         3         1         1      0.00006404
         8         3         1         3         2         1     -0.00007469
         8         3         1         3         3         1     -0.00015181
         8         3         1         3         4         1      0.00020108
         8         3         3         1         1         1      0.00048443
         8         3         3         1         1         2     -0.00058660
         8         3         3         1         1         3     -0.00116432
         8         3         3         1         1         4      0.00142891
         8         4         1         3         1         1     -0.00018750
         8         4         1         3         2         1      0.00004568
         8         4         1         3         3         1     -0.00017052
         8         4         1         3         4         1     -0.00038466
         8         4         3         1         1         1      0.00029955
         8         4         3         1         1         2     -0.00056909
         8         4         3         1         1         3      0.00032140
         8         4         3         1         1         4      0.00051518
         8         5         1         3         1         1     -0.00005689
         8         5         1         3         2         1     -0.00000507
         8         5         1         3         3         1     -0.00019916
         8         5         1         3         4         1     -0.00005146
         8         5         3         1         1         1     -0.00011083
         8         5         3         1         1         2      0.00014205
         8         5         3         1         1         3      0.00085176
         8         5         3         1         1         4     -0.00046450
         9         1         1         3         1         1      0.00000979
         9         1         1         3         2         1     -0.00000553
         9         1         1         3         3         1      0.00001436
         9         1         1         3         4         1      0.00001441
         9         1         3         1         1         1     -0.00000171
         9         1         3         1         1         2      0.00000215
         9         1         3         1         1         3     -0.00000419
         9         1         3         1         1         4     -0.00000260
         9         2         1         3         1         1     -0.00024424
         9         2         1         3         2         1     -0.00007132
         9         2         1         3         3         1     -0.00012730
         9         2         1         3         4         1     -0.00030798
         9         2         3         1         1         1      0.00016448
         9         2         3         1         1         2     -0.00026379
         9         2         3         1         1         3      0.00038766
         9         2         3         1         1         4      0.00016791
         9         3         1         3         1         1      0.00007896
         9         3         1         3         2         1     -0.00000657
         9         3         1         3         3         1     -0.00009926
         9         3         1         3         4         1      0.00018347
         9         3         3         1         1         1     -0.00027165
         9         3         3         1         1         2      0.00034632
         9         3         3         1         1         3      0.00066871
         9         3         3         1         1         4     -0.00064590
         9         4         1         3         1         1     -0.00651028
         9         4         1         3         2         1      0.00207623
         9         4         1         3         3         1     -0.00496159
         9         4         1         3         4         1     -0.00672754
         9         4         3         1         1         1     -0.00982332
         9         4         3         1         1         2      0.01206424
         9         4         3         1         1         3     -0.00914861
         9         4         3         1         1         4     -0.00809196
         9         5         1         3         1         1     -0.00211553
         9         5         1         3         2         1      0.00104104
         9         5         1         3         3         1     -0.00916136
         9         5         1         3         4         1     -0.00049438
         9         5         3         1         1         1      0.00036670
         9         5         3         1         1         2     -0.00343718
         9         5         3         1         1         3     -0.02423955
         9         5         3         1         1         4      0.00269991
         8         6         2         3         1         1     -0.00022671
         8         6         3         2         1         1     -0.00175972
         8         7         2         3         1         1     -0.00015719
         8         7         3         2         1         1      0.00100710
         9         6         2         3         1         1     -0.00015719
         9         6         3         2         1         1      0.00100710
         9         7         2         3         1         1     -0.00789819
         9         7         3         2         1         1     -0.02881502


 RESULTS
 =======

  Reference energy                   -459.608317213086

  Correlated core orbitals:             1.1       2.1       3.1       1.2       1.3
  Orbital energies:                  -104.8130  -10.5885   -8.0656   -8.0444   -8.0444

  CCSD core-core energy                -0.001552578157
  CCSD core-valence energy             -0.000726805504
  CCSD valence correlation energy      -0.044381440691

  CCSD singlet pair energy             -0.035730704244
  CCSD triplet pair energy             -0.010930120044
  CCSD correlation energy              -0.046660824352

 !CCSD total energy                  -459.654978037437

 Timing summary (sec):

 STEP                 CPU(USER)    SYS     CPU(TOT)    WALL
 CCSD iterations         0.10      0.03      0.13      0.13

 Program statistics:

 Available memory in ccsd:                39998876
 Min. memory needed in ccsd:                  5855
 Max. memory used in ccsd:                    5855
 Max. memory used in cckext:                 41405 (16 integral passes)



 **********************************************************************************************************************************
 DATASETS  * FILE   NREC   LENGTH (MB)   RECORD NAMES
              1      20       30.02       500      700      610      900      950      970     1000      129      960     1100   
                                          VAR     GEOM    BASINP   SYMINP    ZMAT    AOBASIS   BASIS     P2S    ABASIS      S 
                                         1400     1410     1200     1210     1080     1600     1650     1300     1700     1380   
                                           T        V       H0       H01     AOSYM     SMH    MOLCAS    ERIS     OPER     JKOP   

              3       5       14.77       500      610      700     1000     2100   
                                          VAR    BASINP    GEOM     BASIS     RHF  

 PROGRAMS   *        TOTAL      CCSD       INT   RESTART
 CPU TIMES  *         0.50      0.18      0.18      0.01
 REAL TIME  *         0.70 SEC
 DISK USED  *        49.44 MB
 **********************************************************************************************************************************
 Molecular orbitals read from record     2100.3  Type=RHF/CANONICAL (state 1.1)
 Occupation numbers read from record     2100.3  Type=RHF/RHF (state 1.1)
 Orbital energies read from record       2100.3  Type=RHF/CANONICAL (state 1.1)
 Redundancy group numbers read from rec  2100.3  Type=RHF/RHF (state 1.1)

 CCSD/6-31G energy=   -459.654978037437

            CCSD
   -459.65497804
 **********************************************************************************************************************************
 Molpro calculation terminated
