
 Primary working directories    : /scr/yuriaoto/job.022808/molpro.lJ94EFtKL3
 Secondary working directories  : /scr/yuriaoto/job.022808/molpro.lJ94EFtKL3
 Wavefunction directory         : /scr/yuriaoto/job.022808/
 Main file repository           : /scr/yuriaoto/job.022808/molpro.lJ94EFtKL3/

 id        : yuriaoto

 Nodes             nprocs
 t-rex.ufabc.int.br    1

 Using customized tuning parameters: mindgm=8; mindgv=16; mindgc=1; mindgr=1; noblas=0; minvec=7
 default implementation of scratch files=df  


 Variables initialized (933), CPU time= 0.01 sec
 ***,
 memory,40,m
 gprint,orbital,basis,civector
 gthresh,thrprint=0,printci=0.0
 file,3,wfu.dat,old
 
 {cisd,CC_NORM_MAX=20.0
 thresh,printci=0.0,ENERGY=1.0E-10,COEFF=1.0E-12
 print,ref=1
 core,0
 wf,14,1,0;
 }
 
 Commands  initialized (760), CPU time= 0.01 sec, 617 directives.
 Default parameters read. Elapsed time= 0.04 sec

 Checking input...
 Passed
1


                                         ***  PROGRAM SYSTEM MOLPRO  ***
                                       Copyright, TTI GmbH Stuttgart, 2015
                                    Version 2019.2 linked Abr  7 2019 15:10:35


 **********************************************************************************************************************************
 LABEL *                                                                                 
  64 bit serial version                                                                  DATE: 20-Mar-20          TIME: 18:54:31  
 **********************************************************************************************************************************

 SHA1:             3a8a58c585c929645742fb5a1b7541a4ad1da699
 **********************************************************************************************************************************


 THRESHOLDS:

 ZERO    =  1.00D-12  ONEINT  =  1.00D-12  TWOINT  =  1.00D-11  PREFAC  =  1.00D-14  XXXXXX  =  1.00D-09  EORDER  =  1.00D-04
 ENERGY  =  0.00D+00  ETEST   =  0.00D+00  EDENS   =  0.00D+00  THRDEDEF=  1.00D-06  GRADIENT=  1.00D-02  STEP    =  1.00D-03
 ORBITAL =  1.00D-05  CIVEC   =  1.00D-05  COEFF   =  1.00D-04  PRINTCI =  0.00D+00  PUNCHCI =  9.90D+01  OPTGRAD =  3.00D-04
 OPTENERG=  1.00D-06  OPTSTEP =  3.00D-04  THRGRAD =  1.00D-10  COMPRESS=  1.00D-11  VARMIN  =  1.00D-07  VARMAX  =  1.00D-03
 THRDOUB =  0.00D+00  THRDIV  =  1.00D-05  THRRED  =  1.00D-07  THRPSP  =  1.00D+00  THRDC   =  1.00D-10  THRCS   =  1.00D-10
 THRNRM  =  1.00D-08  THREQ   =  0.00D+00  THRDE   =  1.00D+00  THRREF  =  1.00D-05  SPARFAC =  1.00D+00  THRDLP  =  1.00D-07
 THRDIA  =  1.00D-10  THRDLS  =  1.00D-07  THRGPS  =  0.00D+00  THRKEX  =  0.00D+00  THRDIS  =  2.00D-01  THRVAR  =  1.00D-10
 THRLOC  =  1.00D-06  THRGAP  =  1.00D-06  THRLOCT = -1.00D+00  THRGAPT = -1.00D+00  THRORB  =  1.00D-06  THRMLTP =  0.00D+00
 THRCPQCI=  1.00D-10  KEXTA   =  0.00D+00  THRCOARS=  0.00D+00  SYMTOL  =  1.00D-06  GRADTOL =  1.00D-06  THROVL  =  1.00D-08
 THRORTH =  1.00D-08  GRID    =  1.00D-06  GRIDMAX =  1.00D-03  DTMAX   =  0.00D+00  THROCCDE=  1.00D-01  THROCCDE=  1.00D-01
 THRPRINT=  0.00D+00


 Variable memory set to   40000000 words,  buffer space 



 Permanent file  3  wfu.dat  assigned.  Implementation=df    Size= 14.08 MB


 PROGRAM * RESTART 


 Reading variables from file 3

 _FNUC           =      0.00000000
 _BASIS          =    6-31G
 _NELEC          =     14.00000000
 _PROGRAM        =    RHF-SCF
 _DMX_SCF        =      0.00000000
 _DMY_SCF        =      0.00000000
 _DMZ_SCF        =      0.00000000
 _HOMO           =      1.20000000
 _EHOMO          =     -0.47733994
 _LUMO           =      1.60000000
 _ELUMO          =     -0.02720870
 _ENERGY         =   -108.56037943
 _ENERGY_METHOD  =    RHF
 _ENERGY_BASIS   =    6-31G
 _ENUC           =     16.33333333
 _EPS1(1:5)      =    -15.81771777    -1.22408989    -0.55476884     0.90356566     1.08163906
 _EPS2(1:2)      =     -0.47733994     0.86881343
 _EPS3(1:2)      =     -0.47733994     0.86881343
 _EPS5(1:5)      =    -15.81713369    -0.91208671     0.20403463     0.84931301     1.30241938
 _EPS6(1:2)      =     -0.02720870     0.95746624
 _EPS7(1:2)      =     -0.02720870     0.95746624
 _IPROC_MPP      =      0.00000000
 _IPROC_MPPX     =      0.00000000
 _ORBITAL        =   2100.30000000
 _STATUS         =      1.00000000
 _LASTORB        =    RHF
 _OUTPUT         =    /scr/yuriaoto/job.022805/RHF.xml
 _PGROUP         =    D2h 
 _TIME           =    18:50:32
 R               =      3.00000000

 Geometry written to block  1 of record 700


 **********************************************************************************************************************************
 DATASETS  * FILE   NREC   LENGTH (MB)   RECORD NAMES
              3       5       14.77       500      610      700     1000     2100   
                                          VAR    BASINP    GEOM     BASIS     RHF  

 PROGRAMS   *        TOTAL   RESTART
 CPU TIMES  *         0.11      0.01
 REAL TIME  *         0.14 SEC
 DISK USED  *        26.84 MB
 **********************************************************************************************************************************


 Recomputing integrals since basis changed


 Using spherical harmonics

 Library entry N      S 6-31G                selected for orbital group  1
 Library entry N      P 6-31G                selected for orbital group  1


 PROGRAM * SEWARD (Integral evaluation for generally contracted gaussian basis sets)     Author: Roland Lindh, 1990

 Geometry written to block  1 of record 700

 Orientation using atomic masses  
 Molecule type: Linear
 User-specified symmetry elements: X,Y,Z
 Symmetry elements: X,Y,Z
 Rotational constants:      28.6329822     28.6329822      0.0000000 GHz  (calculated with average atomic masses)

 Point group  D2h 



 ATOMIC COORDINATES

 NR  ATOM    CHARGE       X              Y              Z

   1  N1      7.00    0.000000000    0.000000000   -1.500000000
   2  N2      7.00    0.000000000    0.000000000    1.500000000

 Bond lengths in Bohr (Angstrom)

 1-2  3.000000000
     ( 1.587531633)


 BASIS DATA

   Nr Sym  Nuc  Type         Exponents   Contraction coefficients

    1.1 Ag    1  1s        4173.511500     0.001835
              2  1s         627.457910     0.013995
                            142.902090     0.068587
                             40.234329     0.232241
                             12.820213     0.469070
                              4.390437     0.360455
    2.1 Ag    1  1s          11.626362    -0.114961
              2  1s           2.716280    -0.169117
                              0.772218     1.145852
    3.1 Ag    1  1s           0.212032     1.000000
              2  1s    
    4.1 Ag    1  2pz         11.626362     0.067580
              2 -2pz          2.716280     0.323907
                              0.772218     0.740895
    5.1 Ag    1  2pz          0.212032     1.000000
              2 -2pz   
    1.2 B3u   1  2px         11.626362     0.067580
              2  2px          2.716280     0.323907
                              0.772218     0.740895
    2.2 B3u   1  2px          0.212032     1.000000
              2  2px   
    1.3 B2u   1  2py         11.626362     0.067580
              2  2py          2.716280     0.323907
                              0.772218     0.740895
    2.3 B2u   1  2py          0.212032     1.000000
              2  2py   
    1.5 B1u   1  1s        4173.511500     0.001835
              2 -1s         627.457910     0.013995
                            142.902090     0.068587
                             40.234329     0.232241
                             12.820213     0.469070
                              4.390437     0.360455
    2.5 B1u   1  1s          11.626362    -0.114961
              2 -1s           2.716280    -0.169117
                              0.772218     1.145852
    3.5 B1u   1  1s           0.212032     1.000000
              2 -1s    
    4.5 B1u   1  2pz         11.626362     0.067580
              2  2pz          2.716280     0.323907
                              0.772218     0.740895
    5.5 B1u   1  2pz          0.212032     1.000000
              2  2pz   
    1.6 B2g   1  2px         11.626362     0.067580
              2 -2px          2.716280     0.323907
                              0.772218     0.740895
    2.6 B2g   1  2px          0.212032     1.000000
              2 -2px   
    1.7 B3g   1  2py         11.626362     0.067580
              2 -2py          2.716280     0.323907
                              0.772218     0.740895
    2.7 B3g   1  2py          0.212032     1.000000
              2 -2py   

 NUCLEAR CHARGE:                   14
 NUMBER OF PRIMITIVE AOS:          44
 NUMBER OF SYMMETRY AOS:           44
 NUMBER OF CONTRACTIONS:           18   (    5Ag  +    2B3u +    2B2u +    0B1g +    5B1u +    2B2g +    2B3g +    0Au  )
 NUMBER OF CORE ORBITALS:           2   (    1Ag  +    0B3u +    0B2u +    0B1g +    1B1u +    0B2g +    0B3g +    0Au  )
 NUMBER OF VALENCE ORBITALS:        8   (    2Ag  +    1B3u +    1B2u +    0B1g +    2B1u +    1B2g +    1B3g +    0Au  )


 NUCLEAR REPULSION ENERGY   16.33333333

 Eigenvalues of metric

         1 0.238E+00 0.415E+00 0.926E+00 0.155E+01 0.276E+01
         2 0.544E+00 0.186E+01
         3 0.544E+00 0.186E+01
         5 0.420E-01 0.342E+00 0.806E+00 0.100E+01 0.192E+01
         6 0.352E+00 0.124E+01
         7 0.352E+00 0.124E+01


 Contracted 2-electron integrals neglected if value below      1.0D-11
 AO integral compression algorithm  1   Integral accuracy      1.0D-11

     0.262 MB (compressed) written to integral file (100.0%)


 NUMBER OF SORTED TWO-ELECTRON INTEGRALS:       2829.     BUFFER LENGTH:  32768
 NUMBER OF SEGMENTS:   1  SEGMENT LENGTH:       2829      RECORD LENGTH: 524288

 Memory used in sort:       0.56 MW

 SORT1 READ        8184. AND WROTE        2829. INTEGRALS IN      1 RECORDS. CPU TIME:     0.00 SEC, REAL TIME:     0.00 SEC
 SORT2 READ        2829. AND WROTE        2829. INTEGRALS IN      1 RECORDS. CPU TIME:     0.01 SEC, REAL TIME:     0.01 SEC

 FILE SIZES:   FILE 1:    30.2 MBYTE,  FILE 4:     4.2 MBYTE,   TOTAL:     34.4 MBYTE

 OPERATOR DM      FOR CENTER  0  COORDINATES:    0.000000    0.000000    0.000000


 **********************************************************************************************************************************
 DATASETS  * FILE   NREC   LENGTH (MB)   RECORD NAMES
              1      19       29.97       500      700      610      900      950      970     1000      129      960     1100   
                                          VAR     GEOM    BASINP   SYMINP    ZMAT    AOBASIS   BASIS     P2S    ABASIS      S 
                                         1400     1410     1200     1210     1080     1600     1650     1300     1700   
                                           T        V       H0       H01     AOSYM     SMH    MOLCAS    ERIS     OPER   

              3       5       14.77       500      610      700     1000     2100   
                                          VAR    BASINP    GEOM     BASIS     RHF  

 PROGRAMS   *        TOTAL       INT   RESTART
 CPU TIMES  *         0.26      0.14      0.01
 REAL TIME  *         0.43 SEC
 DISK USED  *        49.44 MB
 **********************************************************************************************************************************


 PROGRAM * CISD (Closed-shell CI(SD))     Authors: C. Hampel, H.-J. Werner, 1991, M. Deegan, P.J. Knowles, 1992


 Input parameters for THRESH:

 ENERGY   =    1.00D-10
 COEFF    =    1.00D-12
 PRINTCI  =    0.000000
 THRPRINT =    0.000000

 Convergence thresholds:  THRVAR = 1.00D-24  THRDEN = 1.00D-10

 Number of closed-shell orbitals:   7 (   3   1   1   0   2   0   0 )
 Number of external orbitals:      11 (   2   1   1   0   3   2   2 )

 Molecular orbitals read from record     2100.3  Type=RHF/CANONICAL (state 1.1)

 Number of N-1 electron functions:               7
 Number of N-2 electron functions:              28
 Number of singly external CSFs:                14
 Number of doubly external CSFs:               493
 Total number of CSFs:                         508

 Length of J-op  integral file:               0.00 MB
 Length of K-op  integral file:               0.04 MB

 Integral transformation finished. Total CPU:   0.00 sec, npass=  1  Memory used:   0.07 MW

 Reference energy:                   -108.56037943

 MP2 singlet pair energy:              -0.25764248
 MP2 triplet pair energy:              -0.21014109
 MP2 correlation energy:               -0.46778357
 MP2 total energy:                   -109.02816300

 SCS-MP2 correlation energy:           -0.43992543   (PS=  1.200000  PT=  0.333333)
 SCS-MP2 total energy:               -109.00030486

 ITER.      SQ.NORM     CORR.ENERGY   TOTAL ENERGY   ENERGY CHANGE        DEN1      VAR(S)    VAR(P)  DIIS     TIME  TIME/IT
   1      1.05686364    -0.56825852  -109.12863796    -0.10047496     0.35376941  0.19D-01  0.27D+00  0  0     0.02     0.01
   2      1.26142842    -0.42381796  -108.98419739     0.14444057    -0.29058583  0.21D-01  0.18D+00  1  1     0.03     0.01
   3      1.12725436    -0.23381475  -108.79419419     0.19000320     0.12740688  0.86D-04  0.30D-03  2  2     0.03     0.01
   4      1.11669969    -0.30072176  -108.86110119    -0.06690701     0.00825087  0.13D-04  0.14D-03  3  3     0.04     0.01
   5      1.10434411    -0.29842323  -108.85880267     0.00229853     0.00989367  0.16D-04  0.87D-04  4  4     0.04     0.01
   6      1.13285029    -0.29469447  -108.85507390     0.00372877    -0.01856668  0.31D-05  0.88D-04  5  5     0.04     0.01
   7      1.17953020    -0.30170325  -108.86208268    -0.00700878    -0.02254609  0.11D-05  0.33D-04  6  6     0.05     0.01
   8      1.18399586    -0.30545212  -108.86583155    -0.00374887    -0.00176180  0.52D-06  0.63D-05  6  1     0.05     0.01
   9      1.19395513    -0.30555184  -108.86593127    -0.00009972    -0.00408179  0.38D-07  0.15D-05  6  2     0.06     0.00
  10      1.19269012    -0.30562423  -108.86600366    -0.00007239     0.00077366  0.17D-07  0.24D-06  6  4     0.06     0.00
  11      1.19357129    -0.30562497  -108.86600440    -0.00000074    -0.00029591  0.11D-08  0.19D-07  6  5     0.06     0.00
  12      1.19386905    -0.30562592  -108.86600535    -0.00000095    -0.00011453  0.26D-09  0.60D-08  6  3     0.07     0.00
  13      1.19384809    -0.30562596  -108.86600539    -0.00000004     0.00000116  0.45D-10  0.36D-09  6  2     0.07     0.00
  14      1.19380934    -0.30562596  -108.86600540    -0.00000000     0.00001283  0.44D-11  0.36D-10  6  6     0.08     0.00
  15      1.19380412    -0.30562597  -108.86600540    -0.00000000     0.00000146  0.50D-12  0.24D-11  6  1     0.08     0.00
  16      1.19380317    -0.30562597  -108.86600540    -0.00000000     0.00000034  0.50D-13  0.38D-12  6  4     0.08     0.00
  17      1.19380337    -0.30562597  -108.86600540    -0.00000000    -0.00000008  0.75D-14  0.91D-13  6  5     0.09     0.00
  18      1.19380325    -0.30562597  -108.86600540    -0.00000000     0.00000004  0.21D-14  0.19D-13  6  3     0.09     0.00
  19      1.19380331    -0.30562597  -108.86600540    -0.00000000    -0.00000002  0.32D-15  0.29D-14  6  6     0.09     0.00
  20      1.19380327    -0.30562597  -108.86600540     0.00000000     0.00000000  0.72D-17  0.71D-15  6  2     0.10     0.00
  21      1.19380325    -0.30562597  -108.86600540    -0.00000000     0.00000001  0.15D-16  0.14D-15  6  4     0.10     0.00
  22      1.19380325    -0.30562597  -108.86600540     0.00000000    -0.00000000  0.14D-17  0.97D-17  6  1     0.10     0.00
  23      1.19380325    -0.30562597  -108.86600540     0.00000000     0.00000000  0.15D-18  0.10D-17  6  6     0.11     0.00
  24      1.19380325    -0.30562597  -108.86600540     0.00000000    -0.00000000  0.15D-19  0.14D-18  6  5     0.11     0.00
  25      1.19380325    -0.30562597  -108.86600540     0.00000000    -0.00000000  0.67D-21  0.88D-20  6  3     0.11     0.00
  26      1.19380325    -0.30562597  -108.86600540     0.00000000    -0.00000000  0.52D-22  0.92D-21  6  1     0.11     0.00
  27      1.19380325    -0.30562597  -108.86600540     0.00000000     0.00000000  0.91D-23  0.10D-21  6  2     0.12     0.00
  28      1.19380325    -0.30562597  -108.86600540     0.00000000    -0.00000000  0.75D-24  0.92D-23  6  4     0.12     0.00
  29      1.19380325    -0.30562597  -108.86600540     0.00000000     0.00000000  0.13D-24  0.17D-23  6  6     0.12     0.00
  30      1.19380325    -0.30562597  -108.86600540     0.00000000    -0.00000000  0.25D-25  0.22D-24  6  5     0.12     0.00


 ! DIPOLE MOMENTS:                      0.00000000     0.00000000     0.00000000



 Norm of t1 vector:      0.08419306      S-energy:    -0.00181472      T1 diagnostic:  0.01591099

 Singles amplitudes (print threshold =  0.000E+00):

         I         SYM. A    A   T(IA)

         1         1         1     -0.00029688
         1         1         2     -0.00015609
         2         1         1      0.00644736
         2         1         2     -0.00257242
         3         1         1     -0.00147627
         3         1         2     -0.01844365
         4         2         1      0.03773227
         5         3         1      0.03773227
         6         5         1      0.00010250
         6         5         2      0.00016195
         6         5         3     -0.00023088
         7         5         1      0.01571491
         7         5         2     -0.00766266
         7         5         3      0.00061350

 Doubles amplitudes (print threshold =  0.000E+00):

         I         J         SYM. A    SYM. B    A         B      T(IJ, AB)

         1         1         1         1         1         1     -0.00059501
         1         1         1         1         1         2     -0.00007001
         1         1         1         1         2         1     -0.00007001
         1         1         1         1         2         2     -0.00061492
         1         1         2         2         1         1     -0.00058074
         1         1         3         3         1         1     -0.00058074
         1         1         5         5         1         1     -0.00051653
         1         1         5         5         1         2      0.00033902
         1         1         5         5         1         3      0.00035777
         1         1         5         5         2         1      0.00033902
         1         1         5         5         2         2     -0.00057324
         1         1         5         5         2         3      0.00006073
         1         1         5         5         3         1      0.00035777
         1         1         5         5         3         2      0.00006073
         1         1         5         5         3         3     -0.00042264
         1         1         6         6         1         1     -0.00027288
         1         1         6         6         1         2      0.00045795
         1         1         6         6         2         1      0.00045795
         1         1         6         6         2         2     -0.00055888
         1         1         7         7         1         1     -0.00027288
         1         1         7         7         1         2      0.00045795
         1         1         7         7         2         1      0.00045795
         1         1         7         7         2         2     -0.00055888
         2         1         1         1         1         1      0.00003475
         2         1         1         1         1         2      0.00024209
         2         1         1         1         2         1      0.00044040
         2         1         1         1         2         2     -0.00021793
         2         1         2         2         1         1     -0.00053841
         2         1         3         3         1         1     -0.00053841
         2         1         5         5         1         1     -0.00061446
         2         1         5         5         1         2      0.00076335
         2         1         5         5         1         3      0.00005419
         2         1         5         5         2         1      0.00046074
         2         1         5         5         2         2     -0.00047987
         2         1         5         5         2         3     -0.00011676
         2         1         5         5         3         1      0.00012383
         2         1         5         5         3         2     -0.00027421
         2         1         5         5         3         3      0.00010688
         2         1         6         6         1         1     -0.00061254
         2         1         6         6         1         2      0.00078804
         2         1         6         6         2         1      0.00048570
         2         1         6         6         2         2     -0.00054301
         2         1         7         7         1         1     -0.00061254
         2         1         7         7         1         2      0.00078804
         2         1         7         7         2         1      0.00048570
         2         1         7         7         2         2     -0.00054301
         2         2         1         1         1         1     -0.00440271
         2         2         1         1         1         2     -0.00392125
         2         2         1         1         2         1     -0.00392125
         2         2         1         1         2         2     -0.00977452
         2         2         2         2         1         1     -0.00537861
         2         2         3         3         1         1     -0.00537861
         2         2         5         5         1         1     -0.02857311
         2         2         5         5         1         2      0.00749682
         2         2         5         5         1         3      0.00948829
         2         2         5         5         2         1      0.00749682
         2         2         5         5         2         2     -0.00405808
         2         2         5         5         2         3     -0.00189035
         2         2         5         5         3         1      0.00948829
         2         2         5         5         3         2     -0.00189035
         2         2         5         5         3         3     -0.00638912
         2         2         6         6         1         1     -0.01658575
         2         2         6         6         1         2      0.00738380
         2         2         6         6         2         1      0.00738380
         2         2         6         6         2         2     -0.00459061
         2         2         7         7         1         1     -0.01658575
         2         2         7         7         1         2      0.00738380
         2         2         7         7         2         1      0.00738380
         2         2         7         7         2         2     -0.00459061
         3         1         1         1         1         1      0.00011074
         3         1         1         1         1         2     -0.00047029
         3         1         1         1         2         1      0.00028654
         3         1         1         1         2         2     -0.00011176
         3         1         2         2         1         1      0.00019423
         3         1         3         3         1         1      0.00019423
         3         1         5         5         1         1     -0.00000690
         3         1         5         5         1         2     -0.00006290
         3         1         5         5         1         3     -0.00000321
         3         1         5         5         2         1     -0.00038160
         3         1         5         5         2         2      0.00023435
         3         1         5         5         2         3      0.00020658
         3         1         5         5         3         1      0.00054807
         3         1         5         5         3         2     -0.00051302
         3         1         5         5         3         3     -0.00009860
         3         1         6         6         1         1      0.00018730
         3         1         6         6         1         2     -0.00025545
         3         1         6         6         2         1     -0.00007489
         3         1         6         6         2         2      0.00010634
         3         1         7         7         1         1      0.00018730
         3         1         7         7         1         2     -0.00025545
         3         1         7         7         2         1     -0.00007489
         3         1         7         7         2         2      0.00010634
         3         2         1         1         1         1      0.00912810
         3         2         1         1         1         2      0.00337343
         3         2         1         1         2         1     -0.00397323
         3         2         1         1         2         2     -0.00709064
         3         2         2         2         1         1      0.00199646
         3         2         3         3         1         1      0.00199646
         3         2         5         5         1         1     -0.02569885
         3         2         5         5         1         2      0.00520462
         3         2         5         5         1         3      0.01077607
         3         2         5         5         2         1      0.01270169
         3         2         5         5         2         2      0.00260893
         3         2         5         5         2         3     -0.00862553
         3         2         5         5         3         1      0.00978884
         3         2         5         5         3         2     -0.00480121
         3         2         5         5         3         3     -0.00103210
         3         2         6         6         1         1      0.00758027
         3         2         6         6         1         2     -0.00121072
         3         2         6         6         2         1      0.00048551
         3         2         6         6         2         2      0.00082593
         3         2         7         7         1         1      0.00758027
         3         2         7         7         1         2     -0.00121072
         3         2         7         7         2         1      0.00048551
         3         2         7         7         2         2      0.00082593
         3         3         1         1         1         1     -0.01970100
         3         3         1         1         1         2      0.00680508
         3         3         1         1         2         1      0.00680508
         3         3         1         1         2         2     -0.00500770
         3         3         2         2         1         1     -0.00229525
         3         3         3         3         1         1     -0.00229525
         3         3         5         5         1         1     -0.07510621
         3         3         5         5         1         2      0.02686581
         3         3         5         5         1         3     -0.00180109
         3         3         5         5         2         1      0.02686581
         3         3         5         5         2         2     -0.02646725
         3         3         5         5         2         3      0.00304963
         3         3         5         5         3         1     -0.00180109
         3         3         5         5         3         2      0.00304963
         3         3         5         5         3         3     -0.00335468
         3         3         6         6         1         1     -0.02038765
         3         3         6         6         1         2      0.00279761
         3         3         6         6         2         1      0.00279761
         3         3         6         6         2         2     -0.00218296
         3         3         7         7         1         1     -0.02038765
         3         3         7         7         1         2      0.00279761
         3         3         7         7         2         1      0.00279761
         3         3         7         7         2         2     -0.00218296
         4         4         1         1         1         1     -0.00444231
         4         4         1         1         1         2     -0.00343995
         4         4         1         1         2         1     -0.00343995
         4         4         1         1         2         2     -0.00624544
         4         4         2         2         1         1     -0.01820321
         4         4         3         3         1         1     -0.00125226
         4         4         5         5         1         1     -0.01691105
         4         4         5         5         1         2      0.00164637
         4         4         5         5         1         3      0.00132541
         4         4         5         5         2         1      0.00164637
         4         4         5         5         2         2     -0.00177781
         4         4         5         5         2         3      0.00101263
         4         4         5         5         3         1      0.00132541
         4         4         5         5         3         2      0.00101263
         4         4         5         5         3         3     -0.00367820
         4         4         6         6         1         1     -0.19522082
         4         4         6         6         1         2      0.03183148
         4         4         6         6         2         1      0.03183148
         4         4         6         6         2         2     -0.01435227
         4         4         7         7         1         1     -0.01802161
         4         4         7         7         1         2      0.00237956
         4         4         7         7         2         1      0.00237956
         4         4         7         7         2         2     -0.00104345
         5         5         1         1         1         1     -0.00444231
         5         5         1         1         1         2     -0.00343995
         5         5         1         1         2         1     -0.00343995
         5         5         1         1         2         2     -0.00624544
         5         5         2         2         1         1     -0.00125226
         5         5         3         3         1         1     -0.01820321
         5         5         5         5         1         1     -0.01691105
         5         5         5         5         1         2      0.00164637
         5         5         5         5         1         3      0.00132541
         5         5         5         5         2         1      0.00164637
         5         5         5         5         2         2     -0.00177781
         5         5         5         5         2         3      0.00101263
         5         5         5         5         3         1      0.00132541
         5         5         5         5         3         2      0.00101263
         5         5         5         5         3         3     -0.00367820
         5         5         6         6         1         1     -0.01802161
         5         5         6         6         1         2      0.00237956
         5         5         6         6         2         1      0.00237956
         5         5         6         6         2         2     -0.00104345
         5         5         7         7         1         1     -0.19522082
         5         5         7         7         1         2      0.03183148
         5         5         7         7         2         1      0.03183148
         5         5         7         7         2         2     -0.01435227
         6         6         1         1         1         1     -0.00059196
         6         6         1         1         1         2     -0.00007525
         6         6         1         1         2         1     -0.00007525
         6         6         1         1         2         2     -0.00060859
         6         6         2         2         1         1     -0.00057472
         6         6         3         3         1         1     -0.00057472
         6         6         5         5         1         1     -0.00052787
         6         6         5         5         1         2      0.00035035
         6         6         5         5         1         3      0.00035943
         6         6         5         5         2         1      0.00035035
         6         6         5         5         2         2     -0.00058437
         6         6         5         5         2         3      0.00005852
         6         6         5         5         3         1      0.00035943
         6         6         5         5         3         2      0.00005852
         6         6         5         5         3         3     -0.00042269
         6         6         6         6         1         1     -0.00027931
         6         6         6         6         1         2      0.00046364
         6         6         6         6         2         1      0.00046364
         6         6         6         6         2         2     -0.00056478
         6         6         7         7         1         1     -0.00027931
         6         6         7         7         1         2      0.00046364
         6         6         7         7         2         1      0.00046364
         6         6         7         7         2         2     -0.00056478
         7         6         1         1         1         1     -0.00007598
         7         6         1         1         1         2      0.00046951
         7         6         1         1         2         1      0.00026396
         7         6         1         1         2         2     -0.00015185
         7         6         2         2         1         1     -0.00063143
         7         6         3         3         1         1     -0.00063143
         7         6         5         5         1         1     -0.00068602
         7         6         5         5         1         2      0.00086231
         7         6         5         5         1         3      0.00006686
         7         6         5         5         2         1      0.00063278
         7         6         5         5         2         2     -0.00056100
         7         6         5         5         2         3     -0.00021658
         7         6         5         5         3         1     -0.00011839
         7         6         5         5         3         2     -0.00006858
         7         6         5         5         3         3      0.00016282
         7         6         6         6         1         1     -0.00075739
         7         6         6         6         1         2      0.00094041
         7         6         6         6         2         1      0.00050597
         7         6         6         6         2         2     -0.00057527
         7         6         7         7         1         1     -0.00075739
         7         6         7         7         1         2      0.00094041
         7         6         7         7         2         1      0.00050597
         7         6         7         7         2         2     -0.00057527
         7         7         1         1         1         1     -0.01341712
         7         7         1         1         1         2     -0.00156885
         7         7         1         1         2         1     -0.00156885
         7         7         1         1         2         2     -0.00251272
         7         7         2         2         1         1     -0.00615085
         7         7         3         3         1         1     -0.00615085
         7         7         5         5         1         1     -0.02747980
         7         7         5         5         1         2      0.00626417
         7         7         5         5         1         3      0.00142963
         7         7         5         5         2         1      0.00626417
         7         7         5         5         2         2     -0.01184663
         7         7         5         5         2         3      0.00532890
         7         7         5         5         3         1      0.00142963
         7         7         5         5         3         2      0.00532890
         7         7         5         5         3         3     -0.00635298
         7         7         6         6         1         1     -0.04569446
         7         7         6         6         1         2      0.01081779
         7         7         6         6         2         1      0.01081779
         7         7         6         6         2         2     -0.00570751
         7         7         7         7         1         1     -0.04569446
         7         7         7         7         1         2      0.01081779
         7         7         7         7         2         1      0.01081779
         7         7         7         7         2         2     -0.00570751
         4         1         1         2         1         1      0.00039965
         4         1         1         2         2         1      0.00024271
         4         1         2         1         1         1     -0.00020087
         4         1         2         1         1         2     -0.00013254
         4         1         5         6         1         1     -0.00044223
         4         1         5         6         1         2      0.00035433
         4         1         5         6         2         1     -0.00021175
         4         1         5         6         2         2      0.00018051
         4         1         5         6         3         1      0.00039657
         4         1         5         6         3         2     -0.00033687
         4         1         6         5         1         1      0.00002301
         4         1         6         5         1         2     -0.00014271
         4         1         6         5         1         3      0.00002679
         4         1         6         5         2         1     -0.00006153
         4         1         6         5         2         2     -0.00008237
         4         1         6         5         2         3      0.00015714
         4         2         1         2         1         1      0.00532932
         4         2         1         2         2         1      0.00473958
         4         2         2         1         1         1      0.01045337
         4         2         2         1         1         2      0.01123327
         4         2         5         6         1         1     -0.02587448
         4         2         5         6         1         2      0.00787987
         4         2         5         6         2         1     -0.00140924
         4         2         5         6         2         2      0.00152528
         4         2         5         6         3         1      0.00217669
         4         2         5         6         3         2     -0.00378068
         4         2         6         5         1         1     -0.02732974
         4         2         6         5         1         2     -0.00024813
         4         2         6         5         1         3      0.00697275
         4         2         6         5         2         1      0.01381702
         4         2         6         5         2         2      0.00090337
         4         2         6         5         2         3     -0.00831549
         4         3         1         2         1         1     -0.00383529
         4         3         1         2         2         1      0.00021343
         4         3         2         1         1         1     -0.01429547
         4         3         2         1         1         2      0.00695104
         4         3         5         6         1         1     -0.02496597
         4         3         5         6         1         2      0.00487725
         4         3         5         6         2         1      0.01250054
         4         3         5         6         2         2     -0.00478674
         4         3         5         6         3         1      0.00183006
         4         3         5         6         3         2      0.00174852
         4         3         6         5         1         1     -0.05928431
         4         3         6         5         1         2      0.02383113
         4         3         6         5         1         3      0.00034612
         4         3         6         5         2         1      0.01476596
         4         3         6         5         2         2     -0.01471624
         4         3         6         5         2         3      0.00128203
         5         1         1         3         1         1      0.00039965
         5         1         1         3         2         1      0.00024271
         5         1         3         1         1         1     -0.00020087
         5         1         3         1         1         2     -0.00013254
         5         1         5         7         1         1     -0.00044223
         5         1         5         7         1         2      0.00035433
         5         1         5         7         2         1     -0.00021175
         5         1         5         7         2         2      0.00018051
         5         1         5         7         3         1      0.00039657
         5         1         5         7         3         2     -0.00033687
         5         1         7         5         1         1      0.00002301
         5         1         7         5         1         2     -0.00014271
         5         1         7         5         1         3      0.00002679
         5         1         7         5         2         1     -0.00006153
         5         1         7         5         2         2     -0.00008237
         5         1         7         5         2         3      0.00015714
         5         2         1         3         1         1      0.00532932
         5         2         1         3         2         1      0.00473958
         5         2         3         1         1         1      0.01045337
         5         2         3         1         1         2      0.01123327
         5         2         5         7         1         1     -0.02587448
         5         2         5         7         1         2      0.00787987
         5         2         5         7         2         1     -0.00140924
         5         2         5         7         2         2      0.00152528
         5         2         5         7         3         1      0.00217669
         5         2         5         7         3         2     -0.00378068
         5         2         7         5         1         1     -0.02732974
         5         2         7         5         1         2     -0.00024813
         5         2         7         5         1         3      0.00697275
         5         2         7         5         2         1      0.01381702
         5         2         7         5         2         2      0.00090337
         5         2         7         5         2         3     -0.00831549
         5         3         1         3         1         1     -0.00383529
         5         3         1         3         2         1      0.00021343
         5         3         3         1         1         1     -0.01429547
         5         3         3         1         1         2      0.00695104
         5         3         5         7         1         1     -0.02496597
         5         3         5         7         1         2      0.00487725
         5         3         5         7         2         1      0.01250054
         5         3         5         7         2         2     -0.00478674
         5         3         5         7         3         1      0.00183006
         5         3         5         7         3         2      0.00174852
         5         3         7         5         1         1     -0.05928431
         5         3         7         5         1         2      0.02383113
         5         3         7         5         1         3      0.00034612
         5         3         7         5         2         1      0.01476596
         5         3         7         5         2         2     -0.01471624
         5         3         7         5         2         3      0.00128203
         5         4         2         3         1         1     -0.00113992
         5         4         3         2         1         1     -0.01581103
         5         4         6         7         1         1     -0.08239841
         5         4         6         7         1         2      0.01063977
         5         4         6         7         2         1      0.01063977
         5         4         6         7         2         2     -0.00221433
         5         4         7         6         1         1     -0.09480079
         5         4         7         6         1         2      0.01881216
         5         4         7         6         2         1      0.01881216
         5         4         7         6         2         2     -0.01109449
         6         1         1         5         1         1     -0.00000511
         6         1         1         5         1         2      0.00047201
         6         1         1         5         1         3     -0.00034880
         6         1         1         5         2         1      0.00059925
         6         1         1         5         2         2     -0.00029682
         6         1         1         5         2         3     -0.00041130
         6         1         2         6         1         1     -0.00047332
         6         1         2         6         1         2      0.00057252
         6         1         3         7         1         1     -0.00047332
         6         1         3         7         1         2      0.00057252
         6         1         5         1         1         1     -0.00001092
         6         1         5         1         1         2      0.00060823
         6         1         5         1         2         1      0.00047850
         6         1         5         1         2         2     -0.00030541
         6         1         5         1         3         1     -0.00034815
         6         1         5         1         3         2     -0.00041341
         6         1         6         2         1         1     -0.00047903
         6         1         6         2         2         1      0.00057853
         6         1         7         3         1         1     -0.00047903
         6         1         7         3         2         1      0.00057853
         6         2         1         5         1         1     -0.00052736
         6         2         1         5         1         2      0.00027754
         6         2         1         5         1         3      0.00027390
         6         2         1         5         2         1      0.00051791
         6         2         1         5         2         2     -0.00041527
         6         2         1         5         2         3     -0.00004040
         6         2         2         6         1         1     -0.00083470
         6         2         2         6         1         2      0.00056391
         6         2         3         7         1         1     -0.00083470
         6         2         3         7         1         2      0.00056391
         6         2         5         1         1         1     -0.00022159
         6         2         5         1         1         2      0.00035531
         6         2         5         1         2         1      0.00012445
         6         2         5         1         2         2     -0.00053324
         6         2         5         1         3         1      0.00015504
         6         2         5         1         3         2      0.00007056
         6         2         6         2         1         1     -0.00050449
         6         2         6         2         2         1      0.00054364
         6         2         7         3         1         1     -0.00050449
         6         2         7         3         2         1      0.00054364
         6         3         1         5         1         1      0.00006340
         6         3         1         5         1         2     -0.00002168
         6         3         1         5         1         3      0.00028416
         6         3         1         5         2         1     -0.00009700
         6         3         1         5         2         2      0.00037638
         6         3         1         5         2         3     -0.00038458
         6         3         2         6         1         1      0.00028084
         6         3         2         6         1         2     -0.00012073
         6         3         3         7         1         1      0.00028084
         6         3         3         7         1         2     -0.00012073
         6         3         5         1         1         1      0.00057923
         6         3         5         1         1         2      0.00021780
         6         3         5         1         2         1     -0.00040904
         6         3         5         1         2         2     -0.00033433
         6         3         5         1         3         1     -0.00023042
         6         3         5         1         3         2      0.00007219
         6         3         6         2         1         1      0.00016203
         6         3         6         2         2         1     -0.00018578
         6         3         7         3         1         1      0.00016203
         6         3         7         3         2         1     -0.00018578
         7         1         1         5         1         1     -0.00050922
         7         1         1         5         1         2      0.00035291
         7         1         1         5         1         3      0.00024372
         7         1         1         5         2         1      0.00022752
         7         1         1         5         2         2     -0.00033921
         7         1         1         5         2         3      0.00003028
         7         1         2         6         1         1     -0.00058100
         7         1         2         6         1         2      0.00063457
         7         1         3         7         1         1     -0.00058100
         7         1         3         7         1         2      0.00063457
         7         1         5         1         1         1     -0.00057324
         7         1         5         1         1         2      0.00062485
         7         1         5         1         2         1      0.00026371
         7         1         5         1         2         2     -0.00057387
         7         1         5         1         3         1      0.00015514
         7         1         5         1         3         2      0.00010779
         7         1         6         2         1         1     -0.00099329
         7         1         6         2         2         1      0.00060549
         7         1         7         3         1         1     -0.00099329
         7         1         7         3         2         1      0.00060549
         7         2         1         5         1         1      0.00414436
         7         2         1         5         1         2      0.00388629
         7         2         1         5         1         3     -0.00572959
         7         2         1         5         2         1      0.00861031
         7         2         1         5         2         2     -0.00249752
         7         2         1         5         2         3     -0.00412442
         7         2         2         6         1         1     -0.01166039
         7         2         2         6         1         2      0.00586414
         7         2         3         7         1         1     -0.01166039
         7         2         3         7         1         2      0.00586414
         7         2         5         1         1         1      0.00149922
         7         2         5         1         1         2      0.00795636
         7         2         5         1         2         1      0.00628651
         7         2         5         1         2         2      0.00033041
         7         2         5         1         3         1     -0.00530742
         7         2         5         1         3         2     -0.00664782
         7         2         6         2         1         1     -0.00943424
         7         2         6         2         2         1      0.00572743
         7         2         7         3         1         1     -0.00943424
         7         2         7         3         2         1      0.00572743
         7         3         1         5         1         1      0.01334963
         7         3         1         5         1         2     -0.01828381
         7         3         1         5         1         3      0.00369016
         7         3         1         5         2         1      0.00724125
         7         3         1         5         2         2     -0.00265079
         7         3         1         5         2         3     -0.00208637
         7         3         2         6         1         1      0.00658945
         7         3         2         6         1         2     -0.00253435
         7         3         3         7         1         1      0.00658945
         7         3         3         7         1         2     -0.00253435
         7         3         5         1         1         1      0.00310861
         7         3         5         1         1         2      0.00777174
         7         3         5         1         2         1     -0.01583787
         7         3         5         1         2         2      0.00249202
         7         3         5         1         3         1      0.00818031
         7         3         5         1         3         2     -0.00560797
         7         3         6         2         1         1      0.00667913
         7         3         6         2         2         1     -0.00283932
         7         3         7         3         1         1      0.00667913
         7         3         7         3         2         1     -0.00283932
         6         4         1         6         1         1      0.00014403
         6         4         1         6         1         2      0.00016621
         6         4         1         6         2         1     -0.00004097
         6         4         1         6         2         2      0.00011125
         6         4         2         5         1         1     -0.00033092
         6         4         2         5         1         2     -0.00018200
         6         4         2         5         1         3      0.00032522
         6         4         5         2         1         1      0.00011765
         6         4         5         2         2         1      0.00008354
         6         4         5         2         3         1     -0.00019606
         6         4         6         1         1         1      0.00048736
         6         4         6         1         1         2      0.00031043
         6         4         6         1         2         1     -0.00040541
         6         4         6         1         2         2     -0.00025326
         7         4         1         6         1         1      0.01650359
         7         4         1         6         1         2     -0.01290371
         7         4         1         6         2         1      0.00864069
         7         4         1         6         2         2     -0.00551409
         7         4         2         5         1         1     -0.00482895
         7         4         2         5         1         2     -0.00338276
         7         4         2         5         1         3      0.00430819
         7         4         5         2         1         1     -0.00557394
         7         4         5         2         2         1     -0.01004605
         7         4         5         2         3         1      0.01141380
         7         4         6         1         1         1      0.01024697
         7         4         6         1         1         2      0.00133295
         7         4         6         1         2         1     -0.00696622
         7         4         6         1         2         2     -0.00354950
         6         5         1         7         1         1      0.00014403
         6         5         1         7         1         2      0.00016621
         6         5         1         7         2         1     -0.00004097
         6         5         1         7         2         2      0.00011125
         6         5         3         5         1         1     -0.00033092
         6         5         3         5         1         2     -0.00018200
         6         5         3         5         1         3      0.00032522
         6         5         5         3         1         1      0.00011765
         6         5         5         3         2         1      0.00008354
         6         5         5         3         3         1     -0.00019606
         6         5         7         1         1         1      0.00048736
         6         5         7         1         1         2      0.00031043
         6         5         7         1         2         1     -0.00040541
         6         5         7         1         2         2     -0.00025326
         7         5         1         7         1         1      0.01650359
         7         5         1         7         1         2     -0.01290371
         7         5         1         7         2         1      0.00864069
         7         5         1         7         2         2     -0.00551409
         7         5         3         5         1         1     -0.00482895
         7         5         3         5         1         2     -0.00338276
         7         5         3         5         1         3      0.00430819
         7         5         5         3         1         1     -0.00557394
         7         5         5         3         2         1     -0.01004605
         7         5         5         3         3         1      0.01141380
         7         5         7         1         1         1      0.01024697
         7         5         7         1         1         2      0.00133295
         7         5         7         1         2         1     -0.00696622
         7         5         7         1         2         2     -0.00354950


 RESULTS
 =======

  Reference energy                   -108.560379433159

  Correlated core orbitals:             1.1       1.5
  Orbital energies:                   -15.8177  -15.8171

  CISD core-core energy                -0.000517116251
  CISD core-valence energy             -0.001238817300
  CISD valence correlation energy      -0.303870031977

  CISD singlet pair energy             -0.245618024064
  CISD triplet pair energy             -0.058193217703
  CISD correlation energy              -0.305625965528

 !CISD total energy                  -108.866005398686

 Timing summary (sec):

 STEP                 CPU(USER)    SYS     CPU(TOT)    WALL
 Transformation          0.01      0.00      0.01      0.01
 CCSD iterations         0.12      0.02      0.14      0.14

 Program statistics:

 Available memory in ccsd:                39999004
 Min. memory needed in ccsd:                  3850
 Max. memory used in ccsd:                    4069
 Max. memory used in cckext:                 37464 (30 integral passes)



 **********************************************************************************************************************************
 DATASETS  * FILE   NREC   LENGTH (MB)   RECORD NAMES
              1      20       30.00       500      700      610      900      950      970     1000      129      960     1100   
                                          VAR     GEOM    BASINP   SYMINP    ZMAT    AOBASIS   BASIS     P2S    ABASIS      S 
                                         1400     1410     1200     1210     1080     1600     1650     1300     1700     1380   
                                           T        V       H0       H01     AOSYM     SMH    MOLCAS    ERIS     OPER     JKOP   

              3       5       14.77       500      610      700     1000     2100   
                                          VAR    BASINP    GEOM     BASIS     RHF  

 PROGRAMS   *        TOTAL      CISD       INT   RESTART
 CPU TIMES  *         0.46      0.20      0.14      0.01
 REAL TIME  *         0.65 SEC
 DISK USED  *        49.44 MB
 **********************************************************************************************************************************
 Molecular orbitals read from record     2100.3  Type=RHF/CANONICAL (state 1.1)
 Occupation numbers read from record     2100.3  Type=RHF/RHF (state 1.1)
 Orbital energies read from record       2100.3  Type=RHF/CANONICAL (state 1.1)
 Redundancy group numbers read from rec  2100.3  Type=RHF/RHF (state 1.1)

 CISD/6-31G energy=   -108.866005398686

            CISD
   -108.86600540
 **********************************************************************************************************************************
 Molpro calculation terminated
