
 Primary working directories    : /scr/yuriaoto/job.023375/molpro.AtKfYAe2PU
 Secondary working directories  : /scr/yuriaoto/job.023375/molpro.AtKfYAe2PU
 Wavefunction directory         : /scr/yuriaoto/job.023375/
 Main file repository           : /scr/yuriaoto/job.023375/molpro.AtKfYAe2PU/

 id        : yuriaoto

 Nodes             nprocs
 t-rex.ufabc.int.br    1

 Using customized tuning parameters: mindgm=8; mindgv=16; mindgc=1; mindgr=1; noblas=0; minvec=7
 default implementation of scratch files=df  


 Variables initialized (933), CPU time= 0.00 sec
 ***,
 memory,400,m
 gprint,orbital,basis,civector
 gthresh,thrprint=0,printci=0.0
 file,3,wfu.dat,old
 
 {fci
 wf,10,1,0
 }
 
 Commands  initialized (760), CPU time= 0.00 sec, 617 directives.
 Default parameters read. Elapsed time= 0.05 sec

 Checking input...
 Passed
1


                                         ***  PROGRAM SYSTEM MOLPRO  ***
                                       Copyright, TTI GmbH Stuttgart, 2015
                                    Version 2019.2 linked Abr  7 2019 15:10:35


 **********************************************************************************************************************************
 LABEL *                                                                                 
  64 bit serial version                                                                  DATE: 02-Jun-20          TIME: 00:09:53  
 **********************************************************************************************************************************

 SHA1:             3a8a58c585c929645742fb5a1b7541a4ad1da699
 **********************************************************************************************************************************


 THRESHOLDS:

 ZERO    =  1.00D-12  ONEINT  =  1.00D-12  TWOINT  =  1.00D-11  PREFAC  =  1.00D-14  XXXXXX  =  1.00D-09  EORDER  =  1.00D-04
 ENERGY  =  0.00D+00  ETEST   =  0.00D+00  EDENS   =  0.00D+00  THRDEDEF=  1.00D-06  GRADIENT=  1.00D-02  STEP    =  1.00D-03
 ORBITAL =  1.00D-05  CIVEC   =  1.00D-05  COEFF   =  1.00D-04  PRINTCI =  0.00D+00  PUNCHCI =  9.90D+01  OPTGRAD =  3.00D-04
 OPTENERG=  1.00D-06  OPTSTEP =  3.00D-04  THRGRAD =  1.00D-10  COMPRESS=  1.00D-11  VARMIN  =  1.00D-07  VARMAX  =  1.00D-03
 THRDOUB =  0.00D+00  THRDIV  =  1.00D-05  THRRED  =  1.00D-07  THRPSP  =  1.00D+00  THRDC   =  1.00D-10  THRCS   =  1.00D-10
 THRNRM  =  1.00D-08  THREQ   =  0.00D+00  THRDE   =  1.00D+00  THRREF  =  1.00D-05  SPARFAC =  1.00D+00  THRDLP  =  1.00D-07
 THRDIA  =  1.00D-10  THRDLS  =  1.00D-07  THRGPS  =  0.00D+00  THRKEX  =  0.00D+00  THRDIS  =  2.00D-01  THRVAR  =  1.00D-10
 THRLOC  =  1.00D-06  THRGAP  =  1.00D-06  THRLOCT = -1.00D+00  THRGAPT = -1.00D+00  THRORB  =  1.00D-06  THRMLTP =  0.00D+00
 THRCPQCI=  1.00D-10  KEXTA   =  0.00D+00  THRCOARS=  0.00D+00  SYMTOL  =  1.00D-06  GRADTOL =  1.00D-06  THROVL  =  1.00D-08
 THRORTH =  1.00D-08  GRID    =  1.00D-06  GRIDMAX =  1.00D-03  DTMAX   =  0.00D+00  THROCCDE=  1.00D-01  THROCCDE=  1.00D-01
 THRPRINT=  0.00D+00


 Variable memory set to  400000000 words,  buffer space 



 Permanent file  3  wfu.dat  assigned.  Implementation=df    Size= 14.09 MB


 PROGRAM * RESTART 


 Reading variables from file 3

 _FNUC           =      0.00000000
 _BASIS          =    6-31G
 _NELEC          =     10.00000000
 _PROGRAM        =    HF-SCF
 _DMZ            =      1.03598798
 _DMX_SCF        =      0.00000000
 _DMY_SCF        =      0.00000000
 _DMZ_SCF        =      1.03598798
 _HOMO           =      1.20000000
 _EHOMO          =     -0.50128600
 _LUMO           =      4.10000000
 _ELUMO          =      0.20310195
 _ENERGY         =    -75.98390244
 _ENERGY_METHOD  =    HF
 _ENERGY_BASIS   =    6-31G
 _ENUC           =      9.16842912
 _EPS1(1:3)      =    -20.56102543    -1.35503251    -0.56043835
 _EPS2           =     -0.50128600
 _EPS3           =     -0.70845397
 _IPROC_MPP      =      0.00000000
 _IPROC_MPPX     =      0.00000000
 _ORBITAL        =   2100.30000000
 _STATUS         =      1.00000000
 _DATE           =    21-Oct-19
 _LASTORB        =    RHF
 _OUTPUT         =    /scr/yuriaoto/job.022429/RHF.xml
 _PGROUP         =    C2v 
 _TIME           =    13:25:56
 R               =      0.96000000
 A               =    104.40000000

 Geometry written to block  1 of record 700


 **********************************************************************************************************************************
 DATASETS  * FILE   NREC   LENGTH (MB)   RECORD NAMES
              3       5       14.78       500      610      700     1000     2100   
                                          VAR    BASINP    GEOM     BASIS     RHF  

 PROGRAMS   *        TOTAL   RESTART
 CPU TIMES  *         0.11      0.02
 REAL TIME  *         0.14 SEC
 DISK USED  *        26.85 MB
 **********************************************************************************************************************************


 Recomputing integrals since basis changed


 Using spherical harmonics

 Library entry H      S 6-31G                selected for orbital group  1
 Library entry O      S 6-31G                selected for orbital group  2
 Library entry O      P 6-31G                selected for orbital group  2


 PROGRAM * SEWARD (Integral evaluation for generally contracted gaussian basis sets)     Author: Roland Lindh, 1990

 Geometry written to block  1 of record 700

 Orientation using atomic masses  
 Molecule type: Asymmetric top,     Order of principal axis = 2
 Symmetry elements: X,Y
 Rotational constants:     283.9621697    815.3763831    435.6978814 GHz  (calculated with average atomic masses)

 Point group  C2v 



 ATOMIC COORDINATES

 NR  ATOM    CHARGE       X              Y              Z

   1  H1      1.00    0.000000000   -1.433449507    0.987477933
   2  H2      1.00    0.000000000    1.433449507    0.987477933
   3  O       8.00    0.000000000    0.000000000   -0.124419479

 Bond lengths in Bohr (Angstrom)

 1-3  1.814137080  2-3  1.814137080
     ( 0.960000000)     ( 0.960000000)

 Bond angles

  1-3-2  104.40000000


 BASIS DATA

   Nr Sym  Nuc  Type         Exponents   Contraction coefficients

    1.1 A1    1  1s          18.731137     0.033495
              2  1s           2.825394     0.234727
                              0.640122     0.813757
    2.1 A1    1  1s           0.161278     1.000000
              2  1s    
    3.1 A1    3  1s        5484.671700     0.001831
                            825.234950     0.013950
                            188.046960     0.068445
                             52.964500     0.232714
                             16.897570     0.470193
                              5.799635     0.358521
    4.1 A1    3  1s          15.539616    -0.110778
                              3.599934    -0.148026
                              1.013762     1.130767
    5.1 A1    3  1s           0.270006     1.000000
    6.1 A1    3  2pz         15.539616     0.070874
                              3.599934     0.339753
                              1.013762     0.727159
    7.1 A1    3  2pz          0.270006     1.000000
    1.2 B1    3  2px         15.539616     0.070874
                              3.599934     0.339753
                              1.013762     0.727159
    2.2 B1    3  2px          0.270006     1.000000
    1.3 B2    1  1s          18.731137     0.033495
              2 -1s           2.825394     0.234727
                              0.640122     0.813757
    2.3 B2    1  1s           0.161278     1.000000
              2 -1s    
    3.3 B2    3  2py         15.539616     0.070874
                              3.599934     0.339753
                              1.013762     0.727159
    4.3 B2    3  2py          0.270006     1.000000

 NUCLEAR CHARGE:                   10
 NUMBER OF PRIMITIVE AOS:          30
 NUMBER OF SYMMETRY AOS:           30
 NUMBER OF CONTRACTIONS:           13   (    7A1  +    2B1  +    4B2  +    0A2  )
 NUMBER OF CORE ORBITALS:           1   (    1A1  +    0B1  +    0B2  +    0A2  )
 NUMBER OF VALENCE ORBITALS:        6   (    3A1  +    1B1  +    2B2  +    0A2  )


 NUCLEAR REPULSION ENERGY    9.16842912

 Eigenvalues of metric

         1 0.681E-01 0.322E+00 0.424E+00 0.681E+00 0.101E+01 0.163E+01 0.344E+01
         2 0.498E+00 0.150E+01
         3 0.120E+00 0.328E+00 0.742E+00 0.224E+01


 Contracted 2-electron integrals neglected if value below      1.0D-11
 AO integral compression algorithm  1   Integral accuracy      1.0D-11

     0.262 MB (compressed) written to integral file (100.0%)


 NUMBER OF SORTED TWO-ELECTRON INTEGRALS:       1649.     BUFFER LENGTH:  32768
 NUMBER OF SEGMENTS:   1  SEGMENT LENGTH:       1649      RECORD LENGTH: 524288

 Memory used in sort:       0.56 MW

 SORT1 READ        2701. AND WROTE        1487. INTEGRALS IN      1 RECORDS. CPU TIME:     0.00 SEC, REAL TIME:     0.01 SEC
 SORT2 READ        1487. AND WROTE        1649. INTEGRALS IN      1 RECORDS. CPU TIME:     0.01 SEC, REAL TIME:     0.01 SEC

 FILE SIZES:   FILE 1:    30.2 MBYTE,  FILE 4:     4.2 MBYTE,   TOTAL:     34.4 MBYTE

 OPERATOR DM      FOR CENTER  0  COORDINATES:    0.000000    0.000000    0.000000


 **********************************************************************************************************************************
 DATASETS  * FILE   NREC   LENGTH (MB)   RECORD NAMES
              1      19       29.97       500      700      610      900      950      970     1000      129      960     1100   
                                          VAR     GEOM    BASINP   SYMINP    ZMAT    AOBASIS   BASIS     P2S    ABASIS      S 
                                         1400     1410     1200     1210     1080     1600     1650     1300     1700   
                                           T        V       H0       H01     AOSYM     SMH    MOLCAS    ERIS     OPER   

              3       5       14.78       500      610      700     1000     2100   
                                          VAR    BASINP    GEOM     BASIS     RHF  

 PROGRAMS   *        TOTAL       INT   RESTART
 CPU TIMES  *         0.35      0.24      0.02
 REAL TIME  *         0.94 SEC
 DISK USED  *        49.46 MB
 **********************************************************************************************************************************


 PROGRAM * FCI (Full CI)     Author: P.J. Knowles, 1984


 Molecular orbitals read from record     2100.3  Type=RHF/CANONICAL (state 1.1)

 Frozen orbitals:              1 (  1  0  0  0  0  0  0  0)
 Active orbitals:             12 (  6  2  4  0  0  0  0  0)
 Active electrons:             8
 Spin quantum number:          0.0
 Orbital pairs:                    34      12      24       8       0       0       0       0
 Strings:                         127     112     128     128       0       0       0       0
                                  127     112     128     128       0       0       0       0
 Determinants:                          61441           61216           61184           61184
                                            0               0               0               0

 Load integrals                1.6 sec
 Transform integrals           1.6 sec
 Storage for integrals:           2240
 Remaining memory:           399996503

 Core energy:             -52.13752111
 Run Hamiltonian processor DAVIDSON
 Symmetry:                   1
 Trial vector:                  0.00
 Result vector:                 0.00
 Maximum iterations:           90
 Convergence threshold:         0.0000100
 RHS vector:                    0.00
 Hamiltonian shift:             0.0000000
 Output threshold:              0.0000000
 Options:                        0
 Number of roots:             1

 Hamiltonian diagonaliser entered at time      1.56

 Initial configuration generated:
   45058      1.0000000    -75.9839024

 It  Tr    CPU  Convergence   Energy       Pop     dE(next)

  1   1    1.6  1.00000000   -75.98390244
                                           0.01 -0.17222914 -0.17220283
  2   1    1.7  0.18657460   -76.10794519
                                           0.06 -0.01289091 -0.01256703
  3   1    1.7  0.05335081   -76.11874389
                                           0.13 -0.00138148 -0.00129926
  4   1    1.8  0.01742105   -76.11986999
                                           0.16 -0.00026651 -0.00024181
  5   1    1.8  0.00806451   -76.12006765
                                           0.22 -0.00004286 -0.00003740
  6   1    1.9  0.00275127   -76.12010223
                                           0.25 -0.00000757 -0.00000644
  7   1    1.9  0.00113979   -76.12010817
                                           0.26 -0.00000157 -0.00000132
  8   1    2.0  0.00048736   -76.12010941
                                           0.27 -0.00000032 -0.00000027
  9   1    2.1  0.00022842   -76.12010966
                                           0.28 -0.00000006 -0.00000005
 10   1    2.2  0.00009569   -76.12010971
                                           0.28 -0.00000001 -0.00000001
 11   1    2.2  0.00004301   -76.12010972
                                           0.29 -0.00000000 -0.00000000
 12   1    2.3  0.00001851   -76.12010972
                                           0.29 -0.00000000 -0.00000000
 13   1    2.4  0.00000785   -76.12010972


RESULTS FOR STATE  1.1
=====================

 Correlation energy                    -0.136207279293
 !FCI STATE  1.1 Energy               -76.120109724097
 CI Vector (threshold=  0.00    )
       0.000252771679  1  2  3  4  5  1  2  3  4  5
      -0.000015910114  1  2  3  4  5  1  2  3  4  6
      -0.000099039683  1  2  3  4  5  1  2  3  4  7
       0.000069545693  1  2  3  4  5  1  2  3  5  6
      -0.000170364268  1  2  3  4  5  1  2  3  5  7
       0.000051582344  1  2  3  4  5  1  2  3  6  7
      -0.000001863596  1  2  3  4  5  1  2  3  8  9
       0.000091809696  1  2  3  4  5  1  2  3 10 11
       0.000239819734  1  2  3  4  5  1  2  3 10 12
      -0.000112864523  1  2  3  4  5  1  2  3 10 13
       0.000020955765  1  2  3  4  5  1  2  3 11 12
      -0.000004439361  1  2  3  4  5  1  2  3 11 13
       0.000012260957  1  2  3  4  5  1  2  3 12 13
      -0.000031931231  1  2  3  4  5  1  2  4  5  6
      -0.000001578778  1  2  3  4  5  1  2  4  5  7
      -0.000013356972  1  2  3  4  5  1  2  4  6  7
       0.000074567344  1  2  3  4  5  1  2  4  8  9
      -0.000090037480  1  2  3  4  5  1  2  4 10 11
      -0.000153840621  1  2  3  4  5  1  2  4 10 12
       0.000103007677  1  2  3  4  5  1  2  4 10 13
      -0.000015774417  1  2  3  4  5  1  2  4 11 12
       0.000000462842  1  2  3  4  5  1  2  4 11 13
      -0.000013194014  1  2  3  4  5  1  2  4 12 13
      -0.000015280180  1  2  3  4  5  1  2  5  6  7
       0.000044184927  1  2  3  4  5  1  2  5  8  9
       0.000000944417  1  2  3  4  5  1  2  5 10 11
      -0.000049946864  1  2  3  4  5  1  2  5 10 12
       0.000042630993  1  2  3  4  5  1  2  5 10 13
       0.000000585016  1  2  3  4  5  1  2  5 11 12
       0.000007814003  1  2  3  4  5  1  2  5 11 13
       0.000006072622  1  2  3  4  5  1  2  5 12 13
      -0.000009760929  1  2  3  4  5  1  2  6  8  9
       0.000034976801  1  2  3  4  5  1  2  6 10 11
       0.000037700887  1  2  3  4  5  1  2  6 10 12
      -0.000027491460  1  2  3  4  5  1  2  6 10 13
       0.000006117938  1  2  3  4  5  1  2  6 11 12
       0.000000990639  1  2  3  4  5  1  2  6 11 13
       0.000007882572  1  2  3  4  5  1  2  6 12 13
       0.000013268865  1  2  3  4  5  1  2  7  8  9
      -0.000076107515  1  2  3  4  5  1  2  7 10 11
      -0.000098652086  1  2  3  4  5  1  2  7 10 12
       0.000052848492  1  2  3  4  5  1  2  7 10 13
      -0.000007623782  1  2  3  4  5  1  2  7 11 12
      -0.000006282489  1  2  3  4  5  1  2  7 11 13
      -0.000010052621  1  2  3  4  5  1  2  7 12 13
       0.000001366776  1  2  3  4  5  1  3  4  5  6
       0.000013503905  1  2  3  4  5  1  3  4  5  7
      -0.000002610475  1  2  3  4  5  1  3  4  6  7
       0.000041918964  1  2  3  4  5  1  3  4  8  9
       0.000019214206  1  2  3  4  5  1  3  4 10 11
       0.000129253076  1  2  3  4  5  1  3  4 10 12
      -0.000035286479  1  2  3  4  5  1  3  4 10 13
       0.000016596653  1  2  3  4  5  1  3  4 11 12
      -0.000002966122  1  2  3  4  5  1  3  4 11 13
       0.000011632557  1  2  3  4  5  1  3  4 12 13
       0.000002199862  1  2  3  4  5  1  3  5  6  7
       0.000155944165  1  2  3  4  5  1  3  5  8  9
      -0.000030364432  1  2  3  4  5  1  3  5 10 11
       0.000050486735  1  2  3  4  5  1  3  5 10 12
       0.000024720061  1  2  3  4  5  1  3  5 10 13
       0.000003126694  1  2  3  4  5  1  3  5 11 12
      -0.000000867542  1  2  3  4  5  1  3  5 11 13
       0.000000522328  1  2  3  4  5  1  3  5 12 13
      -0.000049497033  1  2  3  4  5  1  3  6  8  9
      -0.000012011150  1  2  3  4  5  1  3  6 10 11
      -0.000038184415  1  2  3  4  5  1  3  6 10 12
       0.000018609074  1  2  3  4  5  1  3  6 10 13
      -0.000003253432  1  2  3  4  5  1  3  6 11 12
       0.000000058387  1  2  3  4  5  1  3  6 11 13
      -0.000003770242  1  2  3  4  5  1  3  6 12 13
      -0.000019058057  1  2  3  4  5  1  3  7  8  9
       0.000038244908  1  2  3  4  5  1  3  7 10 11
       0.000084809216  1  2  3  4  5  1  3  7 10 12
      -0.000048732256  1  2  3  4  5  1  3  7 10 13
       0.000006429069  1  2  3  4  5  1  3  7 11 12
      -0.000000718393  1  2  3  4  5  1  3  7 11 13
       0.000003899635  1  2  3  4  5  1  3  7 12 13
      -0.000000801188  1  2  3  4  5  1  4  5  6  7
      -0.000003462740  1  2  3  4  5  1  4  5  8  9
      -0.000002821262  1  2  3  4  5  1  4  5 10 11
       0.000002706957  1  2  3  4  5  1  4  5 10 12
      -0.000000983835  1  2  3  4  5  1  4  5 10 13
       0.000000860508  1  2  3  4  5  1  4  5 11 12
      -0.000000708753  1  2  3  4  5  1  4  5 11 13
      -0.000000546931  1  2  3  4  5  1  4  5 12 13
       0.000005590353  1  2  3  4  5  1  4  6  8  9
      -0.000000112243  1  2  3  4  5  1  4  6 10 11
       0.000011400134  1  2  3  4  5  1  4  6 10 12
      -0.000000972154  1  2  3  4  5  1  4  6 10 13
      -0.000000362362  1  2  3  4  5  1  4  6 11 12
       0.000000256960  1  2  3  4  5  1  4  6 11 13
      -0.000001149373  1  2  3  4  5  1  4  6 12 13
       0.000003039163  1  2  3  4  5  1  4  7  8  9
      -0.000002195940  1  2  3  4  5  1  4  7 10 11
      -0.000007984747  1  2  3  4  5  1  4  7 10 12
       0.000004465576  1  2  3  4  5  1  4  7 10 13
      -0.000000608222  1  2  3  4  5  1  4  7 11 12
       0.000000319405  1  2  3  4  5  1  4  7 11 13
       0.000000463005  1  2  3  4  5  1  4  7 12 13
       0.000014934278  1  2  3  4  5  1  5  6  8  9
      -0.000005006111  1  2  3  4  5  1  5  6 10 11
       0.000002248898  1  2  3  4  5  1  5  6 10 12
       0.000003210934  1  2  3  4  5  1  5  6 10 13
      -0.000001015211  1  2  3  4  5  1  5  6 11 12
       0.000000082301  1  2  3  4  5  1  5  6 11 13
      -0.000001485062  1  2  3  4  5  1  5  6 12 13
       0.000002096440  1  2  3  4  5  1  5  7  8  9
       0.000002666155  1  2  3  4  5  1  5  7 10 11
      -0.000001584957  1  2  3  4  5  1  5  7 10 12
       0.000002034856  1  2  3  4  5  1  5  7 10 13
       0.000000048621  1  2  3  4  5  1  5  7 11 12
       0.000000445153  1  2  3  4  5  1  5  7 11 13
       0.000001185282  1  2  3  4  5  1  5  7 12 13
       0.000002013400  1  2  3  4  5  1  6  7  8  9
      -0.000001541321  1  2  3  4  5  1  6  7 10 11
      -0.000002193921  1  2  3  4  5  1  6  7 10 12
       0.000000447459  1  2  3  4  5  1  6  7 10 13
       0.000001188009  1  2  3  4  5  1  6  7 11 12
      -0.000000635362  1  2  3  4  5  1  6  7 11 13
       0.000001039124  1  2  3  4  5  1  6  7 12 13
       0.000100663438  1  2  3  4  5  1  8  9 10 11
       0.000120779946  1  2  3  4  5  1  8  9 10 12
      -0.000099020665  1  2  3  4  5  1  8  9 10 13
       0.000010873854  1  2  3  4  5  1  8  9 11 12
       0.000003277149  1  2  3  4  5  1  8  9 11 13
       0.000013020975  1  2  3  4  5  1  8  9 12 13
      -0.000002035691  1  2  3  4  5  1 10 11 12 13
      -0.000015910114  1  2  3  4  6  1  2  3  4  5
       0.000187300617  1  2  3  4  6  1  2  3  4  6
      -0.000030745416  1  2  3  4  6  1  2  3  4  7
       0.000117204861  1  2  3  4  6  1  2  3  5  6
       0.000002744467  1  2  3  4  6  1  2  3  5  7
      -0.000050406000  1  2  3  4  6  1  2  3  6  7
       0.000034538277  1  2  3  4  6  1  2  3  8  9
      -0.000074182331  1  2  3  4  6  1  2  3 10 11
      -0.000105767859  1  2  3  4  6  1  2  3 10 12
       0.000047843425  1  2  3  4  6  1  2  3 10 13
      -0.000009781429  1  2  3  4  6  1  2  3 11 12
      -0.000003070806  1  2  3  4  6  1  2  3 11 13
      -0.000009122967  1  2  3  4  6  1  2  3 12 13
       0.000018169080  1  2  3  4  6  1  2  4  5  6
      -0.000002088066  1  2  3  4  6  1  2  4  5  7
       0.000003803290  1  2  3  4  6  1  2  4  6  7
       0.000179482481  1  2  3  4  6  1  2  4  8  9
      -0.000057525257  1  2  3  4  6  1  2  4 10 11
       0.000032948553  1  2  3  4  6  1  2  4 10 12
       0.000069107612  1  2  3  4  6  1  2  4 10 13
       0.000007303372  1  2  3  4  6  1  2  4 11 12
      -0.000000350441  1  2  3  4  6  1  2  4 11 13
       0.000006825098  1  2  3  4  6  1  2  4 12 13
       0.000008756449  1  2  3  4  6  1  2  5  6  7
       0.000139631231  1  2  3  4  6  1  2  5  8  9
      -0.000014278445  1  2  3  4  6  1  2  5 10 11
       0.000037515277  1  2  3  4  6  1  2  5 10 12
       0.000032448949  1  2  3  4  6  1  2  5 10 13
       0.000003818321  1  2  3  4  6  1  2  5 11 12
      -0.000001193071  1  2  3  4  6  1  2  5 11 13
       0.000002064222  1  2  3  4  6  1  2  5 12 13
      -0.000057122961  1  2  3  4  6  1  2  6  8  9
       0.000106097744  1  2  3  4  6  1  2  6 10 11
       0.000064115284  1  2  3  4  6  1  2  6 10 12
      -0.000042705446  1  2  3  4  6  1  2  6 10 13
       0.000003002598  1  2  3  4  6  1  2  6 11 12
       0.000009074934  1  2  3  4  6  1  2  6 11 13
       0.000003912426  1  2  3  4  6  1  2  6 12 13
       0.000032135776  1  2  3  4  6  1  2  7  8  9
      -0.000039330086  1  2  3  4  6  1  2  7 10 11
       0.000007394553  1  2  3  4  6  1  2  7 10 12
       0.000026644345  1  2  3  4  6  1  2  7 10 13
       0.000002165059  1  2  3  4  6  1  2  7 11 12
      -0.000001956278  1  2  3  4  6  1  2  7 11 13
       0.000002482002  1  2  3  4  6  1  2  7 12 13
      -0.000003507354  1  2  3  4  6  1  3  4  5  6
      -0.000002596566  1  2  3  4  6  1  3  4  5  7
       0.000006930940  1  2  3  4  6  1  3  4  6  7
       0.000048511542  1  2  3  4  6  1  3  4  8  9
      -0.000015422821  1  2  3  4  6  1  3  4 10 11
      -0.000048629386  1  2  3  4  6  1  3  4 10 12
       0.000042397972  1  2  3  4  6  1  3  4 10 13
      -0.000005521928  1  2  3  4  6  1  3  4 11 12
       0.000003856927  1  2  3  4  6  1  3  4 11 13
      -0.000004229424  1  2  3  4  6  1  3  4 12 13
       0.000001833935  1  2  3  4  6  1  3  5  6  7
      -0.000002133925  1  2  3  4  6  1  3  5  8  9
      -0.000016201862  1  2  3  4  6  1  3  5 10 11
      -0.000033961030  1  2  3  4  6  1  3  5 10 12
       0.000031627980  1  2  3  4  6  1  3  5 10 13
      -0.000002455025  1  2  3  4  6  1  3  5 11 12
       0.000000861828  1  2  3  4  6  1  3  5 11 13
      -0.000001817629  1  2  3  4  6  1  3  5 12 13
       0.000036901177  1  2  3  4  6  1  3  6  8  9
      -0.000061172783  1  2  3  4  6  1  3  6 10 11
      -0.000024849011  1  2  3  4  6  1  3  6 10 12
       0.000054439386  1  2  3  4  6  1  3  6 10 13
      -0.000002456617  1  2  3  4  6  1  3  6 11 12
      -0.000000837791  1  2  3  4  6  1  3  6 11 13
      -0.000000964938  1  2  3  4  6  1  3  6 12 13
       0.000011965774  1  2  3  4  6  1  3  7  8  9
      -0.000003959249  1  2  3  4  6  1  3  7 10 11
      -0.000026597096  1  2  3  4  6  1  3  7 10 12
       0.000015972811  1  2  3  4  6  1  3  7 10 13
      -0.000001594423  1  2  3  4  6  1  3  7 11 12
       0.000001411586  1  2  3  4  6  1  3  7 11 13
      -0.000000987036  1  2  3  4  6  1  3  7 12 13
       0.000000882770  1  2  3  4  6  1  4  5  6  7
       0.000009483083  1  2  3  4  6  1  4  5  8  9
      -0.000001937624  1  2  3  4  6  1  4  5 10 11
      -0.000002633460  1  2  3  4  6  1  4  5 10 12
       0.000002731070  1  2  3  4  6  1  4  5 10 13
       0.000000052426  1  2  3  4  6  1  4  5 11 12
       0.000000363821  1  2  3  4  6  1  4  5 11 13
       0.000000384925  1  2  3  4  6  1  4  5 12 13
       0.000000718726  1  2  3  4  6  1  4  6  8  9
      -0.000002719056  1  2  3  4  6  1  4  6 10 11
      -0.000006244639  1  2  3  4  6  1  4  6 10 12
       0.000002476170  1  2  3  4  6  1  4  6 10 13
       0.000000839510  1  2  3  4  6  1  4  6 11 12
      -0.000000201417  1  2  3  4  6  1  4  6 11 13
       0.000000471945  1  2  3  4  6  1  4  6 12 13
       0.000003624566  1  2  3  4  6  1  4  7  8  9
       0.000000000000  1  2  3  4  6  1  4  7 10 11
       0.000004152770  1  2  3  4  6  1  4  7 10 12
       0.000000840254  1  2  3  4  6  1  4  7 10 13
      -0.000000042970  1  2  3  4  6  1  4  7 11 12
       0.000000103369  1  2  3  4  6  1  4  7 11 13
      -0.000000322616  1  2  3  4  6  1  4  7 12 13
      -0.000006804641  1  2  3  4  6  1  5  6  8  9
       0.000001407859  1  2  3  4  6  1  5  6 10 11
      -0.000001147484  1  2  3  4  6  1  5  6 10 12
      -0.000001242361  1  2  3  4  6  1  5  6 10 13
       0.000001161907  1  2  3  4  6  1  5  6 11 12
      -0.000000427170  1  2  3  4  6  1  5  6 11 13
       0.000000622991  1  2  3  4  6  1  5  6 12 13
      -0.000000133419  1  2  3  4  6  1  5  7  8  9
       0.000000579204  1  2  3  4  6  1  5  7 10 11
       0.000002934174  1  2  3  4  6  1  5  7 10 12
      -0.000000211246  1  2  3  4  6  1  5  7 10 13
      -0.000000460039  1  2  3  4  6  1  5  7 11 12
      -0.000000263436  1  2  3  4  6  1  5  7 11 13
      -0.000000930259  1  2  3  4  6  1  5  7 12 13
      -0.000002333945  1  2  3  4  6  1  6  7  8  9
       0.000005187647  1  2  3  4  6  1  6  7 10 11
       0.000004670557  1  2  3  4  6  1  6  7 10 12
      -0.000002534095  1  2  3  4  6  1  6  7 10 13
      -0.000000629804  1  2  3  4  6  1  6  7 11 12
      -0.000000066434  1  2  3  4  6  1  6  7 11 13
      -0.000000786450  1  2  3  4  6  1  6  7 12 13
       0.000167295933  1  2  3  4  6  1  8  9 10 11
       0.000061923273  1  2  3  4  6  1  8  9 10 12
      -0.000150804020  1  2  3  4  6  1  8  9 10 13
       0.000002454913  1  2  3  4  6  1  8  9 11 12
       0.000005537501  1  2  3  4  6  1  8  9 11 13
       0.000002157292  1  2  3  4  6  1  8  9 12 13
       0.000001429049  1  2  3  4  6  1 10 11 12 13
      -0.000099039683  1  2  3  4  7  1  2  3  4  5
      -0.000030745416  1  2  3  4  7  1  2  3  4  6
       0.000290465694  1  2  3  4  7  1  2  3  4  7
      -0.000048840978  1  2  3  4  7  1  2  3  5  6
       0.000228797970  1  2  3  4  7  1  2  3  5  7
      -0.000076820668  1  2  3  4  7  1  2  3  6  7
       0.000078406578  1  2  3  4  7  1  2  3  8  9
      -0.000051502937  1  2  3  4  7  1  2  3 10 11
      -0.000015426610  1  2  3  4  7  1  2  3 10 12
       0.000083385943  1  2  3  4  7  1  2  3 10 13
       0.000004298555  1  2  3  4  7  1  2  3 11 12
       0.000003164195  1  2  3  4  7  1  2  3 11 13
       0.000004481153  1  2  3  4  7  1  2  3 12 13
       0.000011248200  1  2  3  4  7  1  2  4  5  6
       0.000011400173  1  2  3  4  7  1  2  4  5  7
       0.000026098119  1  2  3  4  7  1  2  4  6  7
      -0.000052716930  1  2  3  4  7  1  2  4  8  9
       0.000108455867  1  2  3  4  7  1  2  4 10 11
       0.000082405989  1  2  3  4  7  1  2  4 10 12
      -0.000065431503  1  2  3  4  7  1  2  4 10 13
       0.000004344619  1  2  3  4  7  1  2  4 11 12
       0.000006239197  1  2  3  4  7  1  2  4 11 13
       0.000005469918  1  2  3  4  7  1  2  4 12 13
       0.000017130950  1  2  3  4  7  1  2  5  6  7
      -0.000038699672  1  2  3  4  7  1  2  5  8  9
       0.000022497214  1  2  3  4  7  1  2  5 10 11
       0.000013500038  1  2  3  4  7  1  2  5 10 12
      -0.000022335291  1  2  3  4  7  1  2  5 10 13
      -0.000003183351  1  2  3  4  7  1  2  5 11 12
      -0.000002291160  1  2  3  4  7  1  2  5 11 13
      -0.000003944402  1  2  3  4  7  1  2  5 12 13
       0.000005776994  1  2  3  4  7  1  2  6  8  9
      -0.000043087123  1  2  3  4  7  1  2  6 10 11
      -0.000035564910  1  2  3  4  7  1  2  6 10 12
       0.000017751422  1  2  3  4  7  1  2  6 10 13
      -0.000002736022  1  2  3  4  7  1  2  6 11 12
      -0.000002520541  1  2  3  4  7  1  2  6 11 13
      -0.000002554356  1  2  3  4  7  1  2  6 12 13
      -0.000011588506  1  2  3  4  7  1  2  7  8  9
       0.000189457451  1  2  3  4  7  1  2  7 10 11
       0.000143313524  1  2  3  4  7  1  2  7 10 12
      -0.000068708528  1  2  3  4  7  1  2  7 10 13
       0.000008350467  1  2  3  4  7  1  2  7 11 12
       0.000016894540  1  2  3  4  7  1  2  7 11 13
       0.000012768414  1  2  3  4  7  1  2  7 12 13
       0.000000000000  1  2  3  4  7  1  3  4  5  6
      -0.000010895371  1  2  3  4  7  1  3  4  5  7
       0.000000844811  1  2  3  4  7  1  3  4  6  7
      -0.000171145180  1  2  3  4  7  1  3  4  8  9
       0.000014507318  1  2  3  4  7  1  3  4 10 11
      -0.000032295840  1  2  3  4  7  1  3  4 10 12
      -0.000049192214  1  2  3  4  7  1  3  4 10 13
      -0.000004975685  1  2  3  4  7  1  3  4 11 12
      -0.000002351659  1  2  3  4  7  1  3  4 11 13
      -0.000003916386  1  2  3  4  7  1  3  4 12 13
      -0.000001057121  1  2  3  4  7  1  3  5  6  7
      -0.000149520239  1  2  3  4  7  1  3  5  8  9
       0.000036705427  1  2  3  4  7  1  3  5 10 11
      -0.000002255527  1  2  3  4  7  1  3  5 10 12
      -0.000057263061  1  2  3  4  7  1  3  5 10 13
      -0.000000184365  1  2  3  4  7  1  3  5 11 12
       0.000000426010  1  2  3  4  7  1  3  5 11 13
       0.000000638733  1  2  3  4  7  1  3  5 12 13
       0.000045502108  1  2  3  4  7  1  3  6  8  9
      -0.000001265186  1  2  3  4  7  1  3  6 10 11
       0.000008497491  1  2  3  4  7  1  3  6 10 12
       0.000006398954  1  2  3  4  7  1  3  6 10 13
       0.000000879261  1  2  3  4  7  1  3  6 11 12
      -0.000000766384  1  2  3  4  7  1  3  6 11 13
       0.000000230971  1  2  3  4  7  1  3  6 12 13
       0.000020325030  1  2  3  4  7  1  3  7  8  9
      -0.000098573000  1  2  3  4  7  1  3  7 10 11
      -0.000076876594  1  2  3  4  7  1  3  7 10 12
       0.000085621141  1  2  3  4  7  1  3  7 10 13
      -0.000006846963  1  2  3  4  7  1  3  7 11 12
      -0.000000566501  1  2  3  4  7  1  3  7 11 13
      -0.000005087472  1  2  3  4  7  1  3  7 12 13
       0.000001074489  1  2  3  4  7  1  4  5  6  7
      -0.000006538336  1  2  3  4  7  1  4  5  8  9
       0.000004200987  1  2  3  4  7  1  4  5 10 11
       0.000000532040  1  2  3  4  7  1  4  5 10 12
      -0.000002535080  1  2  3  4  7  1  4  5 10 13
      -0.000000489151  1  2  3  4  7  1  4  5 11 12
       0.000000222613  1  2  3  4  7  1  4  5 11 13
      -0.000000093645  1  2  3  4  7  1  4  5 12 13
      -0.000015304348  1  2  3  4  7  1  4  6  8  9
       0.000004290156  1  2  3  4  7  1  4  6 10 11
      -0.000001742920  1  2  3  4  7  1  4  6 10 12
      -0.000005943477  1  2  3  4  7  1  4  6 10 13
      -0.000000043356  1  2  3  4  7  1  4  6 11 12
       0.000000455645  1  2  3  4  7  1  4  6 11 13
       0.000000442488  1  2  3  4  7  1  4  6 12 13
      -0.000002099224  1  2  3  4  7  1  4  7  8  9
       0.000001734978  1  2  3  4  7  1  4  7 10 11
       0.000003871102  1  2  3  4  7  1  4  7 10 12
      -0.000005082766  1  2  3  4  7  1  4  7 10 13
       0.000001723355  1  2  3  4  7  1  4  7 11 12
      -0.000000513054  1  2  3  4  7  1  4  7 11 13
       0.000000538047  1  2  3  4  7  1  4  7 12 13
      -0.000011171629  1  2  3  4  7  1  5  6  8  9
       0.000006424870  1  2  3  4  7  1  5  6 10 11
       0.000001550617  1  2  3  4  7  1  5  6 10 12
      -0.000005497914  1  2  3  4  7  1  5  6 10 13
       0.000000100236  1  2  3  4  7  1  5  6 11 12
       0.000000626040  1  2  3  4  7  1  5  6 11 13
       0.000000423243  1  2  3  4  7  1  5  6 12 13
      -0.000002225039  1  2  3  4  7  1  5  7  8  9
      -0.000001017966  1  2  3  4  7  1  5  7 10 11
       0.000001215828  1  2  3  4  7  1  5  7 10 12
      -0.000003024243  1  2  3  4  7  1  5  7 10 13
       0.000001075363  1  2  3  4  7  1  5  7 11 12
      -0.000000785471  1  2  3  4  7  1  5  7 11 13
      -0.000000094737  1  2  3  4  7  1  5  7 12 13
      -0.000001743496  1  2  3  4  7  1  6  7  8  9
       0.000006156995  1  2  3  4  7  1  6  7 10 11
       0.000004026936  1  2  3  4  7  1  6  7 10 12
      -0.000002287149  1  2  3  4  7  1  6  7 10 13
      -0.000000651665  1  2  3  4  7  1  6  7 11 12
       0.000000220660  1  2  3  4  7  1  6  7 11 13
      -0.000000612623  1  2  3  4  7  1  6  7 12 13
      -0.000189368077  1  2  3  4  7  1  8  9 10 11
      -0.000136696590  1  2  3  4  7  1  8  9 10 12
       0.000093865470  1  2  3  4  7  1  8  9 10 13
      -0.000007975848  1  2  3  4  7  1  8  9 11 12
      -0.000013828160  1  2  3  4  7  1  8  9 11 13
      -0.000011579009  1  2  3  4  7  1  8  9 12 13
       0.000000595253  1  2  3  4  7  1 10 11 12 13
       0.000069545693  1  2  3  5  6  1  2  3  4  5
       0.000117204861  1  2  3  5  6  1  2  3  4  6
      -0.000048840978  1  2  3  5  6  1  2  3  4  7
       0.000201025390  1  2  3  5  6  1  2  3  5  6
      -0.000073239826  1  2  3  5  6  1  2  3  5  7
       0.000023798550  1  2  3  5  6  1  2  3  6  7
       0.000073630079  1  2  3  5  6  1  2  3  8  9
      -0.000038691489  1  2  3  5  6  1  2  3 10 11
      -0.000006832328  1  2  3  5  6  1  2  3 10 12
       0.000000828076  1  2  3  5  6  1  2  3 10 13
       0.000003230206  1  2  3  5  6  1  2  3 11 12
      -0.000004087908  1  2  3  5  6  1  2  3 11 13
       0.000001522302  1  2  3  5  6  1  2  3 12 13
      -0.000004250925  1  2  3  5  6  1  2  4  5  6
      -0.000001408189  1  2  3  5  6  1  2  4  5  7
      -0.000003457042  1  2  3  5  6  1  2  4  6  7
       0.000153112622  1  2  3  5  6  1  2  4  8  9
      -0.000055898769  1  2  3  5  6  1  2  4 10 11
      -0.000019006709  1  2  3  5  6  1  2  4 10 12
       0.000062276838  1  2  3  5  6  1  2  4 10 13
       0.000001475380  1  2  3  5  6  1  2  4 11 12
      -0.000002398087  1  2  3  5  6  1  2  4 11 13
      -0.000000118904  1  2  3  5  6  1  2  4 12 13
      -0.000005016523  1  2  3  5  6  1  2  5  6  7
       0.000246956644  1  2  3  5  6  1  2  5  8  9
      -0.000019132745  1  2  3  5  6  1  2  5 10 11
       0.000023847957  1  2  3  5  6  1  2  5 10 12
       0.000043477349  1  2  3  5  6  1  2  5 10 13
       0.000003485001  1  2  3  5  6  1  2  5 11 12
       0.000000540712  1  2  3  5  6  1  2  5 11 13
       0.000004603969  1  2  3  5  6  1  2  5 12 13
      -0.000106728204  1  2  3  5  6  1  2  6  8  9
       0.000100033897  1  2  3  5  6  1  2  6 10 11
       0.000107512127  1  2  3  5  6  1  2  6 10 12
      -0.000063127063  1  2  3  5  6  1  2  6 10 13
       0.000004472692  1  2  3  5  6  1  2  6 11 12
       0.000005117485  1  2  3  5  6  1  2  6 11 13
       0.000007218418  1  2  3  5  6  1  2  6 12 13
      -0.000001233672  1  2  3  5  6  1  2  7  8  9
      -0.000030801267  1  2  3  5  6  1  2  7 10 11
      -0.000034857691  1  2  3  5  6  1  2  7 10 12
       0.000013456927  1  2  3  5  6  1  2  7 10 13
      -0.000001377106  1  2  3  5  6  1  2  7 11 12
      -0.000003244893  1  2  3  5  6  1  2  7 11 13
      -0.000003730147  1  2  3  5  6  1  2  7 12 13
       0.000000413004  1  2  3  5  6  1  3  4  5  6
       0.000001631032  1  2  3  5  6  1  3  4  5  7
       0.000004268571  1  2  3  5  6  1  3  4  6  7
       0.000047067277  1  2  3  5  6  1  3  4  8  9
      -0.000003556865  1  2  3  5  6  1  3  4 10 11
       0.000006237902  1  2  3  5  6  1  3  4 10 12
       0.000011149592  1  2  3  5  6  1  3  4 10 13
       0.000001528629  1  2  3  5  6  1  3  4 11 12
       0.000000947904  1  2  3  5  6  1  3  4 11 13
       0.000002765923  1  2  3  5  6  1  3  4 12 13
       0.000006786926  1  2  3  5  6  1  3  5  6  7
       0.000075481474  1  2  3  5  6  1  3  5  8  9
      -0.000017661851  1  2  3  5  6  1  3  5 10 11
      -0.000023260488  1  2  3  5  6  1  3  5 10 12
       0.000031853401  1  2  3  5  6  1  3  5 10 13
      -0.000000403453  1  2  3  5  6  1  3  5 11 12
       0.000000453072  1  2  3  5  6  1  3  5 11 13
      -0.000000408852  1  2  3  5  6  1  3  5 12 13
      -0.000003818723  1  2  3  5  6  1  3  6  8  9
      -0.000042356457  1  2  3  5  6  1  3  6 10 11
      -0.000082737646  1  2  3  5  6  1  3  6 10 12
       0.000051165428  1  2  3  5  6  1  3  6 10 13
      -0.000006864265  1  2  3  5  6  1  3  6 11 12
       0.000000314396  1  2  3  5  6  1  3  6 11 13
      -0.000005732367  1  2  3  5  6  1  3  6 12 13
      -0.000001888846  1  2  3  5  6  1  3  7  8  9
       0.000008405639  1  2  3  5  6  1  3  7 10 11
       0.000023111205  1  2  3  5  6  1  3  7 10 12
      -0.000014884833  1  2  3  5  6  1  3  7 10 13
       0.000002013313  1  2  3  5  6  1  3  7 11 12
       0.000000000000  1  2  3  5  6  1  3  7 11 13
       0.000002828835  1  2  3  5  6  1  3  7 12 13
       0.000000177958  1  2  3  5  6  1  4  5  6  7
       0.000001420971  1  2  3  5  6  1  4  5  8  9
      -0.000002354523  1  2  3  5  6  1  4  5 10 11
      -0.000000546647  1  2  3  5  6  1  4  5 10 12
       0.000001224727  1  2  3  5  6  1  4  5 10 13
       0.000000236423  1  2  3  5  6  1  4  5 11 12
      -0.000000045458  1  2  3  5  6  1  4  5 11 13
      -0.000000114503  1  2  3  5  6  1  4  5 12 13
       0.000003543502  1  2  3  5  6  1  4  6  8  9
      -0.000000919620  1  2  3  5  6  1  4  6 10 11
       0.000002076473  1  2  3  5  6  1  4  6 10 12
      -0.000000317835  1  2  3  5  6  1  4  6 10 13
       0.000001079090  1  2  3  5  6  1  4  6 11 12
       0.000000036292  1  2  3  5  6  1  4  6 11 13
       0.000000629519  1  2  3  5  6  1  4  6 12 13
       0.000003843480  1  2  3  5  6  1  4  7  8  9
      -0.000000513515  1  2  3  5  6  1  4  7 10 11
       0.000000784696  1  2  3  5  6  1  4  7 10 12
       0.000001734410  1  2  3  5  6  1  4  7 10 13
      -0.000000125565  1  2  3  5  6  1  4  7 11 12
       0.000000000000  1  2  3  5  6  1  4  7 11 13
       0.000000000000  1  2  3  5  6  1  4  7 12 13
       0.000005740850  1  2  3  5  6  1  5  6  8  9
      -0.000001102293  1  2  3  5  6  1  5  6 10 11
       0.000003179921  1  2  3  5  6  1  5  6 10 12
      -0.000000308738  1  2  3  5  6  1  5  6 10 13
       0.000001581555  1  2  3  5  6  1  5  6 11 12
      -0.000000506121  1  2  3  5  6  1  5  6 11 13
       0.000000363741  1  2  3  5  6  1  5  6 12 13
       0.000005820409  1  2  3  5  6  1  5  7  8  9
       0.000000620540  1  2  3  5  6  1  5  7 10 11
       0.000001330448  1  2  3  5  6  1  5  7 10 12
       0.000001742776  1  2  3  5  6  1  5  7 10 13
      -0.000000413211  1  2  3  5  6  1  5  7 11 12
       0.000000000000  1  2  3  5  6  1  5  7 11 13
      -0.000000154013  1  2  3  5  6  1  5  7 12 13
      -0.000002049223  1  2  3  5  6  1  6  7  8  9
       0.000002299598  1  2  3  5  6  1  6  7 10 11
       0.000002925991  1  2  3  5  6  1  6  7 10 12
      -0.000000701585  1  2  3  5  6  1  6  7 10 13
      -0.000000092908  1  2  3  5  6  1  6  7 11 12
      -0.000000535239  1  2  3  5  6  1  6  7 11 13
      -0.000000530080  1  2  3  5  6  1  6  7 12 13
       0.000140866475  1  2  3  5  6  1  8  9 10 11
       0.000186389178  1  2  3  5  6  1  8  9 10 12
      -0.000153247758  1  2  3  5  6  1  8  9 10 13
       0.000013137311  1  2  3  5  6  1  8  9 11 12
       0.000002691631  1  2  3  5  6  1  8  9 11 13
       0.000012877134  1  2  3  5  6  1  8  9 12 13
       0.000000037913  1  2  3  5  6  1 10 11 12 13
      -0.000170364268  1  2  3  5  7  1  2  3  4  5
       0.000002744467  1  2  3  5  7  1  2  3  4  6
       0.000228797970  1  2  3  5  7  1  2  3  4  7
      -0.000073239826  1  2  3  5  7  1  2  3  5  6
       0.000335674469  1  2  3  5  7  1  2  3  5  7
      -0.000117060930  1  2  3  5  7  1  2  3  6  7
       0.000130617263  1  2  3  5  7  1  2  3  8  9
      -0.000012104696  1  2  3  5  7  1  2  3 10 11
      -0.000009370773  1  2  3  5  7  1  2  3 10 12
       0.000036965599  1  2  3  5  7  1  2  3 10 13
       0.000010527345  1  2  3  5  7  1  2  3 11 12
       0.000002330150  1  2  3  5  7  1  2  3 11 13
       0.000012610975  1  2  3  5  7  1  2  3 12 13
       0.000013842183  1  2  3  5  7  1  2  4  5  6
       0.000003638863  1  2  3  5  7  1  2  4  5  7
       0.000015293097  1  2  3  5  7  1  2  4  6  7
      -0.000051317114  1  2  3  5  7  1  2  4  8  9
       0.000094578940  1  2  3  5  7  1  2  4 10 11
       0.000107413798  1  2  3  5  7  1  2  4 10 12
      -0.000069851691  1  2  3  5  7  1  2  4 10 13
       0.000002610983  1  2  3  5  7  1  2  4 11 12
       0.000004262773  1  2  3  5  7  1  2  4 11 13
       0.000004086414  1  2  3  5  7  1  2  4 12 13
       0.000020431720  1  2  3  5  7  1  2  5  6  7
      -0.000059354501  1  2  3  5  7  1  2  5  8  9
       0.000010252477  1  2  3  5  7  1  2  5 10 11
       0.000004873296  1  2  3  5  7  1  2  5 10 12
      -0.000017363841  1  2  3  5  7  1  2  5 10 13
      -0.000007045032  1  2  3  5  7  1  2  5 11 12
      -0.000002008616  1  2  3  5  7  1  2  5 11 13
      -0.000008351463  1  2  3  5  7  1  2  5 12 13
       0.000011487929  1  2  3  5  7  1  2  6  8  9
      -0.000040096519  1  2  3  5  7  1  2  6 10 11
      -0.000052520582  1  2  3  5  7  1  2  6 10 12
       0.000024992542  1  2  3  5  7  1  2  6 10 13
      -0.000001991154  1  2  3  5  7  1  2  6 11 12
      -0.000000791818  1  2  3  5  7  1  2  6 11 13
      -0.000002247964  1  2  3  5  7  1  2  6 12 13
      -0.000019020199  1  2  3  5  7  1  2  7  8  9
       0.000176267973  1  2  3  5  7  1  2  7 10 11
       0.000213526287  1  2  3  5  7  1  2  7 10 12
      -0.000104682388  1  2  3  5  7  1  2  7 10 13
       0.000009408318  1  2  3  5  7  1  2  7 11 12
       0.000010432924  1  2  3  5  7  1  2  7 11 13
       0.000015297942  1  2  3  5  7  1  2  7 12 13
      -0.000000562038  1  2  3  5  7  1  3  4  5  6
      -0.000008266442  1  2  3  5  7  1  3  4  5  7
       0.000001972529  1  2  3  5  7  1  3  4  6  7
      -0.000131848142  1  2  3  5  7  1  3  4  8  9
       0.000004891030  1  2  3  5  7  1  3  4 10 11
      -0.000074730225  1  2  3  5  7  1  3  4 10 12
      -0.000013928349  1  2  3  5  7  1  3  4 10 13
      -0.000007548460  1  2  3  5  7  1  3  4 11 12
       0.000000826580  1  2  3  5  7  1  3  4 11 13
      -0.000005651773  1  2  3  5  7  1  3  4 12 13
      -0.000000918684  1  2  3  5  7  1  3  5  6  7
      -0.000237760448  1  2  3  5  7  1  3  5  8  9
       0.000046446973  1  2  3  5  7  1  3  5 10 11
      -0.000002180888  1  2  3  5  7  1  3  5 10 12
      -0.000062270498  1  2  3  5  7  1  3  5 10 13
       0.000001322886  1  2  3  5  7  1  3  5 11 12
       0.000001263791  1  2  3  5  7  1  3  5 11 13
       0.000002584235  1  2  3  5  7  1  3  5 12 13
       0.000080813075  1  2  3  5  7  1  3  6  8  9
       0.000004202679  1  2  3  5  7  1  3  6 10 11
       0.000026875828  1  2  3  5  7  1  3  6 10 12
      -0.000007064693  1  2  3  5  7  1  3  6 10 13
       0.000001453769  1  2  3  5  7  1  3  6 11 12
       0.000000000000  1  2  3  5  7  1  3  6 11 13
       0.000001748007  1  2  3  5  7  1  3  6 12 13
       0.000036807335  1  2  3  5  7  1  3  7  8  9
      -0.000081319099  1  2  3  5  7  1  3  7 10 11
      -0.000155643404  1  2  3  5  7  1  3  7 10 12
       0.000098059618  1  2  3  5  7  1  3  7 10 13
      -0.000010966266  1  2  3  5  7  1  3  7 11 12
       0.000001350178  1  2  3  5  7  1  3  7 11 13
      -0.000008251194  1  2  3  5  7  1  3  7 12 13
       0.000000888195  1  2  3  5  7  1  4  5  6  7
      -0.000000923239  1  2  3  5  7  1  4  5  8  9
       0.000003369076  1  2  3  5  7  1  4  5 10 11
      -0.000000411744  1  2  3  5  7  1  4  5 10 12
      -0.000001342566  1  2  3  5  7  1  4  5 10 13
      -0.000000647007  1  2  3  5  7  1  4  5 11 12
       0.000000139767  1  2  3  5  7  1  4  5 11 13
       0.000000225428  1  2  3  5  7  1  4  5 12 13
      -0.000009311023  1  2  3  5  7  1  4  6  8  9
       0.000001759685  1  2  3  5  7  1  4  6 10 11
      -0.000003897676  1  2  3  5  7  1  4  6 10 12
      -0.000001939522  1  2  3  5  7  1  4  6 10 13
       0.000000746904  1  2  3  5  7  1  4  6 11 12
       0.000000035080  1  2  3  5  7  1  4  6 11 13
       0.000001082008  1  2  3  5  7  1  4  6 12 13
      -0.000001352763  1  2  3  5  7  1  4  7  8  9
       0.000001776439  1  2  3  5  7  1  4  7 10 11
       0.000005243402  1  2  3  5  7  1  4  7 10 12
      -0.000003674380  1  2  3  5  7  1  4  7 10 13
       0.000001278774  1  2  3  5  7  1  4  7 11 12
       0.000000030101  1  2  3  5  7  1  4  7 11 13
       0.000000090063  1  2  3  5  7  1  4  7 12 13
      -0.000014306760  1  2  3  5  7  1  5  6  8  9
       0.000005264983  1  2  3  5  7  1  5  6 10 11
       0.000003335680  1  2  3  5  7  1  5  6 10 12
      -0.000003983381  1  2  3  5  7  1  5  6 10 13
       0.000000428368  1  2  3  5  7  1  5  6 11 12
       0.000000411757  1  2  3  5  7  1  5  6 11 13
       0.000000778914  1  2  3  5  7  1  5  6 12 13
      -0.000002826834  1  2  3  5  7  1  5  7  8  9
      -0.000001691382  1  2  3  5  7  1  5  7 10 11
       0.000002548111  1  2  3  5  7  1  5  7 10 12
      -0.000002731644  1  2  3  5  7  1  5  7 10 13
       0.000001207729  1  2  3  5  7  1  5  7 11 12
      -0.000000426167  1  2  3  5  7  1  5  7 11 13
      -0.000000550743  1  2  3  5  7  1  5  7 12 13
      -0.000001844628  1  2  3  5  7  1  6  7  8  9
       0.000003204964  1  2  3  5  7  1  6  7 10 11
       0.000008401317  1  2  3  5  7  1  6  7 10 12
      -0.000001060268  1  2  3  5  7  1  6  7 10 13
      -0.000001916236  1  2  3  5  7  1  6  7 11 12
       0.000000731787  1  2  3  5  7  1  6  7 11 13
      -0.000001652168  1  2  3  5  7  1  6  7 12 13
      -0.000190305592  1  2  3  5  7  1  8  9 10 11
      -0.000211009185  1  2  3  5  7  1  8  9 10 12
       0.000142302630  1  2  3  5  7  1  8  9 10 13
      -0.000008889470  1  2  3  5  7  1  8  9 11 12
      -0.000010317306  1  2  3  5  7  1  8  9 11 13
      -0.000015004680  1  2  3  5  7  1  8  9 12 13
       0.000001516527  1  2  3  5  7  1 10 11 12 13
       0.000051582344  1  2  3  6  7  1  2  3  4  5
      -0.000050406000  1  2  3  6  7  1  2  3  4  6
      -0.000076820668  1  2  3  6  7  1  2  3  4  7
       0.000023798550  1  2  3  6  7  1  2  3  5  6
      -0.000117060930  1  2  3  6  7  1  2  3  5  7
       0.000120222298  1  2  3  6  7  1  2  3  6  7
      -0.000048055638  1  2  3  6  7  1  2  3  8  9
      -0.000003775865  1  2  3  6  7  1  2  3 10 11
      -0.000006206613  1  2  3  6  7  1  2  3 10 12
      -0.000024866907  1  2  3  6  7  1  2  3 10 13
      -0.000003321239  1  2  3  6  7  1  2  3 11 12
      -0.000002822832  1  2  3  6  7  1  2  3 11 13
      -0.000004266672  1  2  3  6  7  1  2  3 12 13
      -0.000012225413  1  2  3  6  7  1  2  4  5  6
      -0.000001812402  1  2  3  6  7  1  2  4  5  7
      -0.000012970718  1  2  3  6  7  1  2  4  6  7
      -0.000016971218  1  2  3  6  7  1  2  4  8  9
      -0.000003382502  1  2  3  6  7  1  2  4 10 11
      -0.000038009297  1  2  3  6  7  1  2  4 10 12
      -0.000009419954  1  2  3  6  7  1  2  4 10 13
      -0.000003387977  1  2  3  6  7  1  2  4 11 12
      -0.000001709523  1  2  3  6  7  1  2  4 11 13
      -0.000004081877  1  2  3  6  7  1  2  4 12 13
      -0.000020344155  1  2  3  6  7  1  2  5  6  7
       0.000025526475  1  2  3  6  7  1  2  5  8  9
      -0.000004811546  1  2  3  6  7  1  2  5 10 11
      -0.000005231186  1  2  3  6  7  1  2  5 10 12
       0.000007283474  1  2  3  6  7  1  2  5 10 13
       0.000001870084  1  2  3  6  7  1  2  5 11 12
       0.000001281003  1  2  3  6  7  1  2  5 11 13
       0.000002887302  1  2  3  6  7  1  2  5 12 13
      -0.000001029015  1  2  3  6  7  1  2  6  8  9
       0.000015242681  1  2  3  6  7  1  2  6 10 11
       0.000030293109  1  2  3  6  7  1  2  6 10 12
      -0.000017540800  1  2  3  6  7  1  2  6 10 13
       0.000002428169  1  2  3  6  7  1  2  6 11 12
       0.000000240029  1  2  3  6  7  1  2  6 11 13
       0.000002929485  1  2  3  6  7  1  2  6 12 13
      -0.000046265294  1  2  3  6  7  1  2  7  8  9
       0.000002127989  1  2  3  6  7  1  2  7 10 11
      -0.000072148089  1  2  3  6  7  1  2  7 10 12
      -0.000037064783  1  2  3  6  7  1  2  7 10 13
      -0.000007193510  1  2  3  6  7  1  2  7 11 12
      -0.000003852800  1  2  3  6  7  1  2  7 11 13
      -0.000009420978  1  2  3  6  7  1  2  7 12 13
       0.000002425710  1  2  3  6  7  1  3  4  5  6
       0.000003021609  1  2  3  6  7  1  3  4  5  7
       0.000001983941  1  2  3  6  7  1  3  4  6  7
       0.000034645807  1  2  3  6  7  1  3  4  8  9
      -0.000002194118  1  2  3  6  7  1  3  4 10 11
       0.000028294939  1  2  3  6  7  1  3  4 10 12
      -0.000007406928  1  2  3  6  7  1  3  4 10 13
       0.000002835235  1  2  3  6  7  1  3  4 11 12
      -0.000001201679  1  2  3  6  7  1  3  4 11 13
       0.000002308493  1  2  3  6  7  1  3  4 12 13
       0.000004709978  1  2  3  6  7  1  3  5  6  7
       0.000084211070  1  2  3  6  7  1  3  5  8  9
      -0.000005569816  1  2  3  6  7  1  3  5 10 11
       0.000002874911  1  2  3  6  7  1  3  5 10 12
       0.000007139370  1  2  3  6  7  1  3  5 10 13
      -0.000000260655  1  2  3  6  7  1  3  5 11 12
       0.000000824953  1  2  3  6  7  1  3  5 11 13
      -0.000000551090  1  2  3  6  7  1  3  5 12 13
      -0.000061084452  1  2  3  6  7  1  3  6  8  9
       0.000036215088  1  2  3  6  7  1  3  6 10 11
      -0.000010081245  1  2  3  6  7  1  3  6 10 12
      -0.000041785949  1  2  3  6  7  1  3  6 10 13
      -0.000001434025  1  2  3  6  7  1  3  6 11 12
       0.000001250120  1  2  3  6  7  1  3  6 11 13
      -0.000001304624  1  2  3  6  7  1  3  6 12 13
      -0.000021109051  1  2  3  6  7  1  3  7  8  9
       0.000025433506  1  2  3  6  7  1  3  7 10 11
       0.000062211772  1  2  3  6  7  1  3  7 10 12
      -0.000053548598  1  2  3  6  7  1  3  7 10 13
       0.000005407886  1  2  3  6  7  1  3  7 11 12
      -0.000001742490  1  2  3  6  7  1  3  7 11 13
       0.000005279354  1  2  3  6  7  1  3  7 12 13
      -0.000000554524  1  2  3  6  7  1  4  5  6  7
      -0.000002722369  1  2  3  6  7  1  4  5  8  9
      -0.000001229851  1  2  3  6  7  1  4  5 10 11
       0.000000219932  1  2  3  6  7  1  4  5 10 12
      -0.000000220730  1  2  3  6  7  1  4  5 10 13
       0.000000000000  1  2  3  6  7  1  4  5 11 12
      -0.000000162361  1  2  3  6  7  1  4  5 11 13
      -0.000000324116  1  2  3  6  7  1  4  5 12 13
       0.000008659455  1  2  3  6  7  1  4  6  8  9
      -0.000002042847  1  2  3  6  7  1  4  6 10 11
       0.000002490173  1  2  3  6  7  1  4  6 10 12
       0.000000380642  1  2  3  6  7  1  4  6 10 13
      -0.000000231092  1  2  3  6  7  1  4  6 11 12
      -0.000000147296  1  2  3  6  7  1  4  6 11 13
      -0.000000184076  1  2  3  6  7  1  4  6 12 13
       0.000004042681  1  2  3  6  7  1  4  7  8  9
       0.000000282865  1  2  3  6  7  1  4  7 10 11
      -0.000000693753  1  2  3  6  7  1  4  7 10 12
       0.000001477822  1  2  3  6  7  1  4  7 10 13
       0.000000051114  1  2  3  6  7  1  4  7 11 12
      -0.000000129877  1  2  3  6  7  1  4  7 11 13
       0.000000504499  1  2  3  6  7  1  4  7 12 13
       0.000014680392  1  2  3  6  7  1  5  6  8  9
      -0.000004033207  1  2  3  6  7  1  5  6 10 11
      -0.000000789825  1  2  3  6  7  1  5  6 10 12
       0.000003513576  1  2  3  6  7  1  5  6 10 13
      -0.000000070500  1  2  3  6  7  1  5  6 11 12
       0.000000000000  1  2  3  6  7  1  5  6 11 13
      -0.000000166167  1  2  3  6  7  1  5  6 12 13
       0.000007016638  1  2  3  6  7  1  5  7  8  9
       0.000000811618  1  2  3  6  7  1  5  7 10 11
      -0.000000629102  1  2  3  6  7  1  5  7 10 12
       0.000002215036  1  2  3  6  7  1  5  7 10 13
       0.000000030951  1  2  3  6  7  1  5  7 11 12
       0.000000210637  1  2  3  6  7  1  5  7 11 13
       0.000000781886  1  2  3  6  7  1  5  7 12 13
       0.000000000000  1  2  3  6  7  1  6  7  8  9
      -0.000001587259  1  2  3  6  7  1  6  7 10 11
      -0.000004647705  1  2  3  6  7  1  6  7 10 12
       0.000003221148  1  2  3  6  7  1  6  7 10 13
       0.000000795442  1  2  3  6  7  1  6  7 11 12
      -0.000000364990  1  2  3  6  7  1  6  7 11 13
       0.000000467285  1  2  3  6  7  1  6  7 12 13
      -0.000042026225  1  2  3  6  7  1  8  9 10 11
       0.000074243131  1  2  3  6  7  1  8  9 10 12
       0.000074457632  1  2  3  6  7  1  8  9 10 13
       0.000008639828  1  2  3  6  7  1  8  9 11 12
       0.000000655035  1  2  3  6  7  1  8  9 11 13
       0.000009718475  1  2  3  6  7  1  8  9 12 13
      -0.000000974653  1  2  3  6  7  1 10 11 12 13
      -0.000001863596  1  2  3  8  9  1  2  3  4  5
       0.000034538277  1  2  3  8  9  1  2  3  4  6
       0.000078406578  1  2  3  8  9  1  2  3  4  7
       0.000073630079  1  2  3  8  9  1  2  3  5  6
       0.000130617263  1  2  3  8  9  1  2  3  5  7
      -0.000048055638  1  2  3  8  9  1  2  3  6  7
      -0.003125535238  1  2  3  8  9  1  2  3  8  9
      -0.006406920787  1  2  3  8  9  1  2  3 10 11
      -0.001147468893  1  2  3  8  9  1  2  3 10 12
       0.007420951368  1  2  3  8  9  1  2  3 10 13
      -0.000077764746  1  2  3  8  9  1  2  3 11 12
      -0.000263415894  1  2  3  8  9  1  2  3 11 13
      -0.000180414971  1  2  3  8  9  1  2  3 12 13
       0.000003684988  1  2  3  8  9  1  2  4  5  6
       0.000000603882  1  2  3  8  9  1  2  4  5  7
       0.000009373366  1  2  3  8  9  1  2  4  6  7
      -0.000092062604  1  2  3  8  9  1  2  4  8  9
       0.000160350402  1  2  3  8  9  1  2  4 10 11
       0.000171066410  1  2  3  8  9  1  2  4 10 12
       0.000087228164  1  2  3  8  9  1  2  4 10 13
       0.000007700085  1  2  3  8  9  1  2  4 11 12
       0.000031319001  1  2  3  8  9  1  2  4 11 13
       0.000006440032  1  2  3  8  9  1  2  4 12 13
       0.000012774517  1  2  3  8  9  1  2  5  6  7
      -0.000078382968  1  2  3  8  9  1  2  5  8  9
       0.000085245642  1  2  3  8  9  1  2  5 10 11
       0.000073073020  1  2  3  8  9  1  2  5 10 12
       0.000136130353  1  2  3  8  9  1  2  5 10 13
      -0.000012459048  1  2  3  8  9  1  2  5 11 12
      -0.000014539359  1  2  3  8  9  1  2  5 11 13
      -0.000024924600  1  2  3  8  9  1  2  5 12 13
      -0.000017119290  1  2  3  8  9  1  2  6  8  9
       0.000058675240  1  2  3  8  9  1  2  6 10 11
      -0.000077840241  1  2  3  8  9  1  2  6 10 12
       0.000053176774  1  2  3  8  9  1  2  6 10 13
       0.000015783949  1  2  3  8  9  1  2  6 11 12
       0.000038460589  1  2  3  8  9  1  2  6 11 13
       0.000027087909  1  2  3  8  9  1  2  6 12 13
       0.000012692472  1  2  3  8  9  1  2  7  8  9
       0.000168838954  1  2  3  8  9  1  2  7 10 11
       0.000221617330  1  2  3  8  9  1  2  7 10 12
      -0.000107446928  1  2  3  8  9  1  2  7 10 13
       0.000023654578  1  2  3  8  9  1  2  7 11 12
       0.000016213951  1  2  3  8  9  1  2  7 11 13
       0.000032693924  1  2  3  8  9  1  2  7 12 13
      -0.000000281036  1  2  3  8  9  1  3  4  5  6
      -0.000001363836  1  2  3  8  9  1  3  4  5  7
       0.000001119101  1  2  3  8  9  1  3  4  6  7
      -0.000112670312  1  2  3  8  9  1  3  4  8  9
       0.000031065107  1  2  3  8  9  1  3  4 10 11
       0.000006101738  1  2  3  8  9  1  3  4 10 12
      -0.000117864257  1  2  3  8  9  1  3  4 10 13
       0.000021508053  1  2  3  8  9  1  3  4 11 12
      -0.000021613278  1  2  3  8  9  1  3  4 11 13
       0.000027991785  1  2  3  8  9  1  3  4 12 13
       0.000001490622  1  2  3  8  9  1  3  5  6  7
      -0.000159791945  1  2  3  8  9  1  3  5  8  9
      -0.000010589316  1  2  3  8  9  1  3  5 10 11
      -0.000039662933  1  2  3  8  9  1  3  5 10 12
      -0.000064102794  1  2  3  8  9  1  3  5 10 13
       0.000011597852  1  2  3  8  9  1  3  5 11 12
      -0.000015303099  1  2  3  8  9  1  3  5 11 13
       0.000015518371  1  2  3  8  9  1  3  5 12 13
       0.000042229887  1  2  3  8  9  1  3  6  8  9
      -0.000098215883  1  2  3  8  9  1  3  6 10 11
      -0.000069370764  1  2  3  8  9  1  3  6 10 12
       0.000117332841  1  2  3  8  9  1  3  6 10 13
      -0.000005218828  1  2  3  8  9  1  3  6 11 12
       0.000005084042  1  2  3  8  9  1  3  6 11 13
      -0.000004246690  1  2  3  8  9  1  3  6 12 13
       0.000022871885  1  2  3  8  9  1  3  7  8  9
       0.000008032463  1  2  3  8  9  1  3  7 10 11
      -0.000037901059  1  2  3  8  9  1  3  7 10 12
      -0.000054360127  1  2  3  8  9  1  3  7 10 13
      -0.000010270289  1  2  3  8  9  1  3  7 11 12
       0.000001663623  1  2  3  8  9  1  3  7 11 13
      -0.000008782867  1  2  3  8  9  1  3  7 12 13
       0.000001381963  1  2  3  8  9  1  4  5  6  7
       0.000004404205  1  2  3  8  9  1  4  5  8  9
       0.000020010052  1  2  3  8  9  1  4  5 10 11
       0.000000318870  1  2  3  8  9  1  4  5 10 12
      -0.000020818113  1  2  3  8  9  1  4  5 10 13
      -0.000000096797  1  2  3  8  9  1  4  5 11 12
       0.000001684587  1  2  3  8  9  1  4  5 11 13
       0.000000000000  1  2  3  8  9  1  4  5 12 13
       0.000017735268  1  2  3  8  9  1  4  6  8  9
       0.000070923778  1  2  3  8  9  1  4  6 10 11
       0.000012518899  1  2  3  8  9  1  4  6 10 12
      -0.000080370684  1  2  3  8  9  1  4  6 10 13
       0.000001785652  1  2  3  8  9  1  4  6 11 12
       0.000002478039  1  2  3  8  9  1  4  6 11 13
       0.000003251599  1  2  3  8  9  1  4  6 12 13
      -0.000018076418  1  2  3  8  9  1  4  7  8  9
      -0.000031404508  1  2  3  8  9  1  4  7 10 11
       0.000002773649  1  2  3  8  9  1  4  7 10 12
       0.000041265839  1  2  3  8  9  1  4  7 10 13
       0.000001138256  1  2  3  8  9  1  4  7 11 12
      -0.000002613448  1  2  3  8  9  1  4  7 11 13
      -0.000000866256  1  2  3  8  9  1  4  7 12 13
       0.000008834721  1  2  3  8  9  1  5  6  8  9
       0.000048979463  1  2  3  8  9  1  5  6 10 11
       0.000003962884  1  2  3  8  9  1  5  6 10 12
      -0.000056781380  1  2  3  8  9  1  5  6 10 13
       0.000000883499  1  2  3  8  9  1  5  6 11 12
       0.000001730815  1  2  3  8  9  1  5  6 11 13
       0.000001340674  1  2  3  8  9  1  5  6 12 13
      -0.000022393740  1  2  3  8  9  1  5  7  8  9
      -0.000045106145  1  2  3  8  9  1  5  7 10 11
      -0.000000395349  1  2  3  8  9  1  5  7 10 12
       0.000052538654  1  2  3  8  9  1  5  7 10 13
       0.000000398253  1  2  3  8  9  1  5  7 11 12
      -0.000004414448  1  2  3  8  9  1  5  7 11 13
      -0.000001799951  1  2  3  8  9  1  5  7 12 13
      -0.000025904371  1  2  3  8  9  1  6  7  8  9
      -0.000055982606  1  2  3  8  9  1  6  7 10 11
      -0.000011489812  1  2  3  8  9  1  6  7 10 12
       0.000062491756  1  2  3  8  9  1  6  7 10 13
      -0.000001354438  1  2  3  8  9  1  6  7 11 12
      -0.000002614092  1  2  3  8  9  1  6  7 11 13
      -0.000002407919  1  2  3  8  9  1  6  7 12 13
      -0.000133829603  1  2  3  8  9  1  8  9 10 11
      -0.000182981422  1  2  3  8  9  1  8  9 10 12
       0.000044771432  1  2  3  8  9  1  8  9 10 13
      -0.000022967510  1  2  3  8  9  1  8  9 11 12
      -0.000004926768  1  2  3  8  9  1  8  9 11 13
      -0.000014559186  1  2  3  8  9  1  8  9 12 13
       0.000027828978  1  2  3  8  9  1 10 11 12 13
       0.000091809696  1  2  3 10 11  1  2  3  4  5
      -0.000074182331  1  2  3 10 11  1  2  3  4  6
      -0.000051502937  1  2  3 10 11  1  2  3  4  7
      -0.000038691489  1  2  3 10 11  1  2  3  5  6
      -0.000012104696  1  2  3 10 11  1  2  3  5  7
      -0.000003775865  1  2  3 10 11  1  2  3  6  7
      -0.006406920787  1  2  3 10 11  1  2  3  8  9
      -0.004692666026  1  2  3 10 11  1  2  3 10 11
      -0.001759619794  1  2  3 10 11  1  2  3 10 12
       0.003523188910  1  2  3 10 11  1  2  3 10 13
      -0.000034549710  1  2  3 10 11  1  2  3 11 12
      -0.000168399806  1  2  3 10 11  1  2  3 11 13
      -0.000057034637  1  2  3 10 11  1  2  3 12 13
      -0.000006682432  1  2  3 10 11  1  2  4  5  6
      -0.000004080849  1  2  3 10 11  1  2  4  5  7
       0.000000427614  1  2  3 10 11  1  2  4  6  7
       0.000063044136  1  2  3 10 11  1  2  4  8  9
       0.000021113714  1  2  3 10 11  1  2  4 10 11
      -0.000151421264  1  2  3 10 11  1  2  4 10 12
       0.000002494789  1  2  3 10 11  1  2  4 10 13
      -0.000013469110  1  2  3 10 11  1  2  4 11 12
      -0.000002411265  1  2  3 10 11  1  2  4 11 13
      -0.000016298469  1  2  3 10 11  1  2  4 12 13
       0.000004452811  1  2  3 10 11  1  2  5  6  7
       0.000047583785  1  2  3 10 11  1  2  5  8  9
       0.000119213883  1  2  3 10 11  1  2  5 10 11
      -0.000032137784  1  2  3 10 11  1  2  5 10 12
      -0.000012042826  1  2  3 10 11  1  2  5 10 13
      -0.000008295310  1  2  3 10 11  1  2  5 11 12
      -0.000015546117  1  2  3 10 11  1  2  5 11 13
      -0.000017762078  1  2  3 10 11  1  2  5 12 13
       0.000049585523  1  2  3 10 11  1  2  6  8  9
       0.000094736380  1  2  3 10 11  1  2  6 10 11
       0.000050010600  1  2  3 10 11  1  2  6 10 12
       0.000048881633  1  2  3 10 11  1  2  6 10 13
       0.000000000000  1  2  3 10 11  1  2  6 11 12
      -0.000002453494  1  2  3 10 11  1  2  6 11 13
      -0.000002570757  1  2  3 10 11  1  2  6 12 13
       0.000032172019  1  2  3 10 11  1  2  7  8  9
      -0.000018203067  1  2  3 10 11  1  2  7 10 11
      -0.000032261110  1  2  3 10 11  1  2  7 10 12
       0.000010890360  1  2  3 10 11  1  2  7 10 13
       0.000008807103  1  2  3 10 11  1  2  7 11 12
       0.000003647657  1  2  3 10 11  1  2  7 11 13
       0.000008442019  1  2  3 10 11  1  2  7 12 13
       0.000000634713  1  2  3 10 11  1  3  4  5  6
       0.000006441895  1  2  3 10 11  1  3  4  5  7
      -0.000004919344  1  2  3 10 11  1  3  4  6  7
       0.000013873065  1  2  3 10 11  1  3  4  8  9
      -0.000087437936  1  2  3 10 11  1  3  4 10 11
       0.000105467376  1  2  3 10 11  1  3  4 10 12
      -0.000047916733  1  2  3 10 11  1  3  4 10 13
       0.000026547860  1  2  3 10 11  1  3  4 11 12
      -0.000005075868  1  2  3 10 11  1  3  4 11 13
       0.000024900861  1  2  3 10 11  1  3  4 12 13
      -0.000001393554  1  2  3 10 11  1  3  5  6  7
      -0.000019923366  1  2  3 10 11  1  3  5  8  9
      -0.000028489031  1  2  3 10 11  1  3  5 10 11
       0.000070815879  1  2  3 10 11  1  3  5 10 12
      -0.000055734830  1  2  3 10 11  1  3  5 10 13
       0.000012419126  1  2  3 10 11  1  3  5 11 12
       0.000001501730  1  2  3 10 11  1  3  5 11 13
       0.000014221408  1  2  3 10 11  1  3  5 12 13
      -0.000039715930  1  2  3 10 11  1  3  6  8  9
      -0.000036078034  1  2  3 10 11  1  3  6 10 11
      -0.000026418409  1  2  3 10 11  1  3  6 10 12
       0.000052738231  1  2  3 10 11  1  3  6 10 13
       0.000001437555  1  2  3 10 11  1  3  6 11 12
      -0.000001888909  1  2  3 10 11  1  3  6 11 13
      -0.000002767521  1  2  3 10 11  1  3  6 12 13
      -0.000007001394  1  2  3 10 11  1  3  7  8  9
      -0.000161519151  1  2  3 10 11  1  3  7 10 11
      -0.000044316065  1  2  3 10 11  1  3  7 10 12
       0.000050658227  1  2  3 10 11  1  3  7 10 13
      -0.000000531318  1  2  3 10 11  1  3  7 11 12
       0.000006673759  1  2  3 10 11  1  3  7 11 13
       0.000004333298  1  2  3 10 11  1  3  7 12 13
       0.000000796045  1  2  3 10 11  1  4  5  6  7
       0.000021657735  1  2  3 10 11  1  4  5  8  9
       0.000000966697  1  2  3 10 11  1  4  5 10 11
       0.000000868425  1  2  3 10 11  1  4  5 10 12
      -0.000006381198  1  2  3 10 11  1  4  5 10 13
       0.000001300708  1  2  3 10 11  1  4  5 11 12
       0.000000980776  1  2  3 10 11  1  4  5 11 13
       0.000000292248  1  2  3 10 11  1  4  5 12 13
       0.000063900047  1  2  3 10 11  1  4  6  8  9
       0.000039342020  1  2  3 10 11  1  4  6 10 11
       0.000016428328  1  2  3 10 11  1  4  6 10 12
      -0.000035890135  1  2  3 10 11  1  4  6 10 13
      -0.000001713421  1  2  3 10 11  1  4  6 11 12
       0.000002958673  1  2  3 10 11  1  4  6 11 13
      -0.000001039183  1  2  3 10 11  1  4  6 12 13
      -0.000033412215  1  2  3 10 11  1  4  7  8  9
      -0.000018032797  1  2  3 10 11  1  4  7 10 11
      -0.000010995412  1  2  3 10 11  1  4  7 10 12
       0.000014781109  1  2  3 10 11  1  4  7 10 13
      -0.000000212895  1  2  3 10 11  1  4  7 11 12
      -0.000001212546  1  2  3 10 11  1  4  7 11 13
       0.000000412366  1  2  3 10 11  1  4  7 12 13
       0.000045324478  1  2  3 10 11  1  5  6  8  9
       0.000033057671  1  2  3 10 11  1  5  6 10 11
       0.000009237470  1  2  3 10 11  1  5  6 10 12
      -0.000028336464  1  2  3 10 11  1  5  6 10 13
      -0.000001862986  1  2  3 10 11  1  5  6 11 12
       0.000002279471  1  2  3 10 11  1  5  6 11 13
      -0.000001055919  1  2  3 10 11  1  5  6 12 13
      -0.000044214170  1  2  3 10 11  1  5  7  8  9
      -0.000021236673  1  2  3 10 11  1  5  7 10 11
      -0.000006993717  1  2  3 10 11  1  5  7 10 12
       0.000019905811  1  2  3 10 11  1  5  7 10 13
      -0.000000399135  1  2  3 10 11  1  5  7 11 12
      -0.000002837583  1  2  3 10 11  1  5  7 11 13
      -0.000000562019  1  2  3 10 11  1  5  7 12 13
      -0.000053273975  1  2  3 10 11  1  6  7  8  9
      -0.000028724197  1  2  3 10 11  1  6  7 10 11
      -0.000008394646  1  2  3 10 11  1  6  7 10 12
       0.000026834486  1  2  3 10 11  1  6  7 10 13
       0.000000000000  1  2  3 10 11  1  6  7 11 12
      -0.000002744936  1  2  3 10 11  1  6  7 11 13
      -0.000000915308  1  2  3 10 11  1  6  7 12 13
      -0.000041994695  1  2  3 10 11  1  8  9 10 11
      -0.000046482578  1  2  3 10 11  1  8  9 10 12
       0.000000882949  1  2  3 10 11  1  8  9 10 13
      -0.000029348455  1  2  3 10 11  1  8  9 11 12
       0.000001886273  1  2  3 10 11  1  8  9 11 13
      -0.000009593389  1  2  3 10 11  1  8  9 12 13
       0.000004989707  1  2  3 10 11  1 10 11 12 13
       0.000239819734  1  2  3 10 12  1  2  3  4  5
      -0.000105767859  1  2  3 10 12  1  2  3  4  6
      -0.000015426610  1  2  3 10 12  1  2  3  4  7
      -0.000006832328  1  2  3 10 12  1  2  3  5  6
      -0.000009370773  1  2  3 10 12  1  2  3  5  7
      -0.000006206613  1  2  3 10 12  1  2  3  6  7
      -0.001147468893  1  2  3 10 12  1  2  3  8  9
      -0.001759619794  1  2  3 10 12  1  2  3 10 11
      -0.001118593453  1  2  3 10 12  1  2  3 10 12
      -0.000074518421  1  2  3 10 12  1  2  3 10 13
       0.000081848521  1  2  3 10 12  1  2  3 11 12
      -0.000160609712  1  2  3 10 12  1  2  3 11 13
      -0.000006120152  1  2  3 10 12  1  2  3 12 13
      -0.000018785027  1  2  3 10 12  1  2  4  5  6
      -0.000004733441  1  2  3 10 12  1  2  4  5  7
       0.000004910677  1  2  3 10 12  1  2  4  6  7
      -0.000036763119  1  2  3 10 12  1  2  4  8  9
       0.000004612142  1  2  3 10 12  1  2  4 10 11
      -0.000169086065  1  2  3 10 12  1  2  4 10 12
       0.000109278992  1  2  3 10 12  1  2  4 10 13
      -0.000017709384  1  2  3 10 12  1  2  4 11 12
      -0.000000475664  1  2  3 10 12  1  2  4 11 13
      -0.000013774445  1  2  3 10 12  1  2  4 12 13
       0.000012440537  1  2  3 10 12  1  2  5  6  7
      -0.000017525493  1  2  3 10 12  1  2  5  8  9
       0.000041624900  1  2  3 10 12  1  2  5 10 11
      -0.000107791023  1  2  3 10 12  1  2  5 10 12
       0.000088685529  1  2  3 10 12  1  2  5 10 13
      -0.000013127297  1  2  3 10 12  1  2  5 11 12
      -0.000006545554  1  2  3 10 12  1  2  5 11 13
      -0.000009788810  1  2  3 10 12  1  2  5 12 13
      -0.000078585123  1  2  3 10 12  1  2  6  8  9
      -0.000003675723  1  2  3 10 12  1  2  6 10 11
       0.000094979823  1  2  3 10 12  1  2  6 10 12
       0.000076462808  1  2  3 10 12  1  2  6 10 13
      -0.000005589398  1  2  3 10 12  1  2  6 11 12
      -0.000021259586  1  2  3 10 12  1  2  6 11 13
      -0.000004686835  1  2  3 10 12  1  2  6 12 13
       0.000024632926  1  2  3 10 12  1  2  7  8  9
       0.000059512230  1  2  3 10 12  1  2  7 10 11
       0.000046161499  1  2  3 10 12  1  2  7 10 12
      -0.000007100269  1  2  3 10 12  1  2  7 10 13
       0.000011013936  1  2  3 10 12  1  2  7 11 12
       0.000005095817  1  2  3 10 12  1  2  7 11 13
       0.000009604918  1  2  3 10 12  1  2  7 12 13
       0.000001959383  1  2  3 10 12  1  3  4  5  6
       0.000012342815  1  2  3 10 12  1  3  4  5  7
      -0.000006804372  1  2  3 10 12  1  3  4  6  7
       0.000112600903  1  2  3 10 12  1  3  4  8  9
       0.000019715246  1  2  3 10 12  1  3  4 10 11
       0.000202236599  1  2  3 10 12  1  3  4 10 12
      -0.000114033288  1  2  3 10 12  1  3  4 10 13
       0.000025202850  1  2  3 10 12  1  3  4 11 12
       0.000005363099  1  2  3 10 12  1  3  4 11 13
       0.000016475830  1  2  3 10 12  1  3  4 12 13
      -0.000000918646  1  2  3 10 12  1  3  5  6  7
       0.000151096961  1  2  3 10 12  1  3  5  8  9
      -0.000056839985  1  2  3 10 12  1  3  5 10 11
       0.000125145923  1  2  3 10 12  1  3  5 10 12
      -0.000043398232  1  2  3 10 12  1  3  5 10 13
       0.000009084252  1  2  3 10 12  1  3  5 11 12
       0.000003552895  1  2  3 10 12  1  3  5 11 13
       0.000006689672  1  2  3 10 12  1  3  5 12 13
      -0.000069130135  1  2  3 10 12  1  3  6  8  9
      -0.000022500254  1  2  3 10 12  1  3  6 10 11
      -0.000067740972  1  2  3 10 12  1  3  6 10 12
       0.000024683470  1  2  3 10 12  1  3  6 10 13
      -0.000001470659  1  2  3 10 12  1  3  6 11 12
      -0.000003911671  1  2  3 10 12  1  3  6 11 13
      -0.000005336041  1  2  3 10 12  1  3  6 12 13
       0.000021561106  1  2  3 10 12  1  3  7  8  9
      -0.000032249614  1  2  3 10 12  1  3  7 10 11
      -0.000029178746  1  2  3 10 12  1  3  7 10 12
      -0.000024138149  1  2  3 10 12  1  3  7 10 13
       0.000000394352  1  2  3 10 12  1  3  7 11 12
       0.000010944521  1  2  3 10 12  1  3  7 11 13
       0.000001571660  1  2  3 10 12  1  3  7 12 13
       0.000001332569  1  2  3 10 12  1  4  5  6  7
      -0.000001534209  1  2  3 10 12  1  4  5  8  9
       0.000004161822  1  2  3 10 12  1  4  5 10 11
       0.000007820925  1  2  3 10 12  1  4  5 10 12
       0.000000449011  1  2  3 10 12  1  4  5 10 13
       0.000001144886  1  2  3 10 12  1  4  5 11 12
       0.000000467717  1  2  3 10 12  1  4  5 11 13
      -0.000000619029  1  2  3 10 12  1  4  5 12 13
       0.000018447950  1  2  3 10 12  1  4  6  8  9
       0.000015303135  1  2  3 10 12  1  4  6 10 11
       0.000015976352  1  2  3 10 12  1  4  6 10 12
      -0.000002744751  1  2  3 10 12  1  4  6 10 13
      -0.000003771162  1  2  3 10 12  1  4  6 11 12
       0.000003462596  1  2  3 10 12  1  4  6 11 13
      -0.000003227491  1  2  3 10 12  1  4  6 12 13
      -0.000005982474  1  2  3 10 12  1  4  7  8  9
      -0.000008508085  1  2  3 10 12  1  4  7 10 11
      -0.000010445370  1  2  3 10 12  1  4  7 10 12
       0.000001701126  1  2  3 10 12  1  4  7 10 13
       0.000001148225  1  2  3 10 12  1  4  7 11 12
      -0.000001301999  1  2  3 10 12  1  4  7 11 13
       0.000001512364  1  2  3 10 12  1  4  7 12 13
       0.000018766587  1  2  3 10 12  1  5  6  8  9
       0.000008573099  1  2  3 10 12  1  5  6 10 11
       0.000010917610  1  2  3 10 12  1  5  6 10 12
      -0.000002149953  1  2  3 10 12  1  5  6 10 13
      -0.000003532753  1  2  3 10 12  1  5  6 11 12
       0.000002710844  1  2  3 10 12  1  5  6 11 13
      -0.000002667060  1  2  3 10 12  1  5  6 12 13
      -0.000005439858  1  2  3 10 12  1  5  7  8  9
      -0.000009944263  1  2  3 10 12  1  5  7 10 11
      -0.000007057116  1  2  3 10 12  1  5  7 10 12
      -0.000000657690  1  2  3 10 12  1  5  7 10 13
       0.000001174777  1  2  3 10 12  1  5  7 11 12
      -0.000001998030  1  2  3 10 12  1  5  7 11 13
       0.000001166872  1  2  3 10 12  1  5  7 12 13
      -0.000010275541  1  2  3 10 12  1  6  7  8  9
      -0.000011979683  1  2  3 10 12  1  6  7 10 11
       0.000003205754  1  2  3 10 12  1  6  7 10 12
      -0.000000840221  1  2  3 10 12  1  6  7 10 13
       0.000000702552  1  2  3 10 12  1  6  7 11 12
      -0.000002583970  1  2  3 10 12  1  6  7 11 13
      -0.000000397768  1  2  3 10 12  1  6  7 12 13
       0.000022714064  1  2  3 10 12  1  8  9 10 11
       0.000074472819  1  2  3 10 12  1  8  9 10 12
      -0.000041893485  1  2  3 10 12  1  8  9 10 13
       0.000000320088  1  2  3 10 12  1  8  9 11 12
      -0.000001976280  1  2  3 10 12  1  8  9 11 13
       0.000004058242  1  2  3 10 12  1  8  9 12 13
      -0.000005149027  1  2  3 10 12  1 10 11 12 13
      -0.000112864523  1  2  3 10 13  1  2  3  4  5
       0.000047843425  1  2  3 10 13  1  2  3  4  6
       0.000083385943  1  2  3 10 13  1  2  3  4  7
       0.000000828076  1  2  3 10 13  1  2  3  5  6
       0.000036965599  1  2  3 10 13  1  2  3  5  7
      -0.000024866907  1  2  3 10 13  1  2  3  6  7
       0.007420951368  1  2  3 10 13  1  2  3  8  9
       0.003523188910  1  2  3 10 13  1  2  3 10 11
      -0.000074518421  1  2  3 10 13  1  2  3 10 12
      -0.004714810041  1  2  3 10 13  1  2  3 10 13
      -0.000103573493  1  2  3 10 13  1  2  3 11 12
       0.000109273597  1  2  3 10 13  1  2  3 11 13
      -0.000044338754  1  2  3 10 13  1  2  3 12 13
       0.000002282163  1  2  3 10 13  1  2  4  5  6
       0.000005315953  1  2  3 10 13  1  2  4  5  7
      -0.000000589293  1  2  3 10 13  1  2  4  6  7
       0.000004535668  1  2  3 10 13  1  2  4  8  9
       0.000187346543  1  2  3 10 13  1  2  4 10 11
       0.000333500351  1  2  3 10 13  1  2  4 10 12
      -0.000089419208  1  2  3 10 13  1  2  4 10 13
       0.000010610113  1  2  3 10 13  1  2  4 11 12
      -0.000008935726  1  2  3 10 13  1  2  4 11 13
       0.000009135787  1  2  3 10 13  1  2  4 12 13
      -0.000004283212  1  2  3 10 13  1  2  5  6  7
      -0.000008290701  1  2  3 10 13  1  2  5  8  9
       0.000040431159  1  2  3 10 13  1  2  5 10 11
       0.000169734199  1  2  3 10 13  1  2  5 10 12
      -0.000027393146  1  2  3 10 13  1  2  5 10 13
       0.000002334313  1  2  3 10 13  1  2  5 11 12
       0.000006136110  1  2  3 10 13  1  2  5 11 13
       0.000005755599  1  2  3 10 13  1  2  5 12 13
       0.000136192179  1  2  3 10 13  1  2  6  8  9
      -0.000024932412  1  2  3 10 13  1  2  6 10 11
      -0.000033112792  1  2  3 10 13  1  2  6 10 12
      -0.000091185013  1  2  3 10 13  1  2  6 10 13
      -0.000017325892  1  2  3 10 13  1  2  6 11 12
      -0.000029949313  1  2  3 10 13  1  2  6 11 13
      -0.000028568985  1  2  3 10 13  1  2  6 12 13
      -0.000040409829  1  2  3 10 13  1  2  7  8  9
       0.000094610315  1  2  3 10 13  1  2  7 10 11
       0.000127551721  1  2  3 10 13  1  2  7 10 12
      -0.000006907755  1  2  3 10 13  1  2  7 10 13
      -0.000006557114  1  2  3 10 13  1  2  7 11 12
      -0.000001535021  1  2  3 10 13  1  2  7 11 13
      -0.000009097210  1  2  3 10 13  1  2  7 12 13
      -0.000001886048  1  2  3 10 13  1  3  4  5  6
      -0.000005382349  1  2  3 10 13  1  3  4  5  7
       0.000002192432  1  2  3 10 13  1  3  4  6  7
      -0.000127417830  1  2  3 10 13  1  3  4  8  9
       0.000055644266  1  2  3 10 13  1  3  4 10 11
      -0.000139158081  1  2  3 10 13  1  3  4 10 12
       0.000049289651  1  2  3 10 13  1  3  4 10 13
      -0.000017905840  1  2  3 10 13  1  3  4 11 12
       0.000018594521  1  2  3 10 13  1  3  4 11 13
      -0.000018522289  1  2  3 10 13  1  3  4 12 13
      -0.000000652194  1  2  3 10 13  1  3  5  6  7
      -0.000063770374  1  2  3 10 13  1  3  5  8  9
      -0.000005162019  1  2  3 10 13  1  3  5 10 11
      -0.000101749280  1  2  3 10 13  1  3  5 10 12
       0.000057033403  1  2  3 10 13  1  3  5 10 13
      -0.000007345575  1  2  3 10 13  1  3  5 11 12
       0.000007613593  1  2  3 10 13  1  3  5 11 13
      -0.000009187935  1  2  3 10 13  1  3  5 12 13
       0.000110368399  1  2  3 10 13  1  3  6  8  9
       0.000003210914  1  2  3 10 13  1  3  6 10 11
       0.000014858758  1  2  3 10 13  1  3  6 10 12
      -0.000066344584  1  2  3 10 13  1  3  6 10 13
      -0.000003278666  1  2  3 10 13  1  3  6 11 12
      -0.000006656071  1  2  3 10 13  1  3  6 11 13
      -0.000001975466  1  2  3 10 13  1  3  6 12 13
      -0.000072795182  1  2  3 10 13  1  3  7  8  9
       0.000102443398  1  2  3 10 13  1  3  7 10 11
      -0.000012395812  1  2  3 10 13  1  3  7 10 12
      -0.000037658397  1  2  3 10 13  1  3  7 10 13
       0.000004577156  1  2  3 10 13  1  3  7 11 12
       0.000004866160  1  2  3 10 13  1  3  7 11 13
       0.000008623004  1  2  3 10 13  1  3  7 12 13
      -0.000001420965  1  2  3 10 13  1  4  5  6  7
      -0.000023535469  1  2  3 10 13  1  4  5  8  9
       0.000002548411  1  2  3 10 13  1  4  5 10 11
       0.000006013573  1  2  3 10 13  1  4  5 10 12
       0.000007258534  1  2  3 10 13  1  4  5 10 13
      -0.000000882264  1  2  3 10 13  1  4  5 11 12
      -0.000001175710  1  2  3 10 13  1  4  5 11 13
      -0.000000061272  1  2  3 10 13  1  4  5 12 13
      -0.000081136351  1  2  3 10 13  1  4  6  8  9
      -0.000026378639  1  2  3 10 13  1  4  6 10 11
       0.000001918320  1  2  3 10 13  1  4  6 10 12
       0.000040920124  1  2  3 10 13  1  4  6 10 13
       0.000003625394  1  2  3 10 13  1  4  6 11 12
      -0.000001832162  1  2  3 10 13  1  4  6 11 13
       0.000002670648  1  2  3 10 13  1  4  6 12 13
       0.000040139742  1  2  3 10 13  1  4  7  8  9
       0.000018789729  1  2  3 10 13  1  4  7 10 11
       0.000005502487  1  2  3 10 13  1  4  7 10 12
      -0.000022135476  1  2  3 10 13  1  4  7 10 13
      -0.000000402450  1  2  3 10 13  1  4  7 11 12
       0.000000227896  1  2  3 10 13  1  4  7 11 13
      -0.000001853563  1  2  3 10 13  1  4  7 12 13
      -0.000059050145  1  2  3 10 13  1  5  6  8  9
      -0.000024087088  1  2  3 10 13  1  5  6 10 11
       0.000003538022  1  2  3 10 13  1  5  6 10 12
       0.000033198584  1  2  3 10 13  1  5  6 10 13
       0.000002666499  1  2  3 10 13  1  5  6 11 12
      -0.000001437073  1  2  3 10 13  1  5  6 11 13
       0.000002130412  1  2  3 10 13  1  5  6 12 13
       0.000050489237  1  2  3 10 13  1  5  7  8  9
       0.000019181427  1  2  3 10 13  1  5  7 10 11
      -0.000002118101  1  2  3 10 13  1  5  7 10 12
      -0.000027220753  1  2  3 10 13  1  5  7 10 13
      -0.000000292297  1  2  3 10 13  1  5  7 11 12
       0.000002273735  1  2  3 10 13  1  5  7 11 13
      -0.000000725757  1  2  3 10 13  1  5  7 12 13
       0.000063828374  1  2  3 10 13  1  6  7  8  9
       0.000022901752  1  2  3 10 13  1  6  7 10 11
      -0.000004620016  1  2  3 10 13  1  6  7 10 12
      -0.000034244737  1  2  3 10 13  1  6  7 10 13
      -0.000001912238  1  2  3 10 13  1  6  7 11 12
       0.000001718781  1  2  3 10 13  1  6  7 11 13
      -0.000000658490  1  2  3 10 13  1  6  7 12 13
      -0.000031586567  1  2  3 10 13  1  8  9 10 11
      -0.000085468945  1  2  3 10 13  1  8  9 10 12
       0.000015652608  1  2  3 10 13  1  8  9 10 13
       0.000025559604  1  2  3 10 13  1  8  9 11 12
      -0.000008978972  1  2  3 10 13  1  8  9 11 13
       0.000001073024  1  2  3 10 13  1  8  9 12 13
      -0.000013306497  1  2  3 10 13  1 10 11 12 13
       0.000020955765  1  2  3 11 12  1  2  3  4  5
      -0.000009781429  1  2  3 11 12  1  2  3  4  6
       0.000004298555  1  2  3 11 12  1  2  3  4  7
       0.000003230206  1  2  3 11 12  1  2  3  5  6
       0.000010527345  1  2  3 11 12  1  2  3  5  7
      -0.000003321239  1  2  3 11 12  1  2  3  6  7
      -0.000077764746  1  2  3 11 12  1  2  3  8  9
      -0.000034549710  1  2  3 11 12  1  2  3 10 11
[...]
       0.000003400757  1  9 10 11 13  1  2  7  9 10
      -0.000005633546  1  9 10 11 13  1  2  7  9 11
      -0.000004889756  1  9 10 11 13  1  2  7  9 12
       0.000000422064  1  9 10 11 13  1  2  7  9 13
      -0.000019084614  1  9 10 11 13  1  3  4  8 10
      -0.000001299175  1  9 10 11 13  1  3  4  8 11
      -0.000001991125  1  9 10 11 13  1  3  4  8 12
      -0.000003870786  1  9 10 11 13  1  3  4  8 13
       0.000010731592  1  9 10 11 13  1  3  4  9 10
       0.000002769504  1  9 10 11 13  1  3  4  9 11
       0.000001807788  1  9 10 11 13  1  3  4  9 12
      -0.000005983255  1  9 10 11 13  1  3  4  9 13
      -0.000013665883  1  9 10 11 13  1  3  5  8 10
      -0.000004551663  1  9 10 11 13  1  3  5  8 11
      -0.000002210680  1  9 10 11 13  1  3  5  8 12
       0.000001541365  1  9 10 11 13  1  3  5  8 13
       0.000006569033  1  9 10 11 13  1  3  5  9 10
       0.000001092259  1  9 10 11 13  1  3  5  9 11
       0.000000853153  1  9 10 11 13  1  3  5  9 12
      -0.000004517850  1  9 10 11 13  1  3  5  9 13
       0.000010337698  1  9 10 11 13  1  3  6  8 10
      -0.000000241691  1  9 10 11 13  1  3  6  8 11
       0.000000790502  1  9 10 11 13  1  3  6  8 12
       0.000002079299  1  9 10 11 13  1  3  6  8 13
      -0.000000895477  1  9 10 11 13  1  3  6  9 10
      -0.000000801343  1  9 10 11 13  1  3  6  9 11
      -0.000000873827  1  9 10 11 13  1  3  6  9 12
       0.000000691231  1  9 10 11 13  1  3  6  9 13
      -0.000028739060  1  9 10 11 13  1  3  7  8 10
      -0.000005594341  1  9 10 11 13  1  3  7  8 11
      -0.000004491022  1  9 10 11 13  1  3  7  8 12
       0.000003008373  1  9 10 11 13  1  3  7  8 13
       0.000002591891  1  9 10 11 13  1  3  7  9 10
      -0.000001434996  1  9 10 11 13  1  3  7  9 11
       0.000000094449  1  9 10 11 13  1  3  7  9 12
       0.000001431641  1  9 10 11 13  1  3  7  9 13
      -0.000003783189  1  9 10 11 13  1  4  5  8 10
      -0.000001707646  1  9 10 11 13  1  4  5  8 11
      -0.000001926232  1  9 10 11 13  1  4  5  8 12
       0.000000902236  1  9 10 11 13  1  4  5  8 13
       0.000000209406  1  9 10 11 13  1  4  5  9 10
       0.000000428766  1  9 10 11 13  1  4  5  9 11
       0.000000346496  1  9 10 11 13  1  4  5  9 12
      -0.000000346009  1  9 10 11 13  1  4  5  9 13
      -0.000005892231  1  9 10 11 13  1  4  6  8 10
      -0.000001120317  1  9 10 11 13  1  4  6  8 11
      -0.000001386379  1  9 10 11 13  1  4  6  8 12
       0.000002037820  1  9 10 11 13  1  4  6  8 13
      -0.000000872977  1  9 10 11 13  1  4  6  9 10
      -0.000000148628  1  9 10 11 13  1  4  6  9 11
       0.000000000000  1  9 10 11 13  1  4  6  9 12
      -0.000000752994  1  9 10 11 13  1  4  6  9 13
       0.000005156345  1  9 10 11 13  1  4  7  8 10
       0.000001075660  1  9 10 11 13  1  4  7  8 11
       0.000001396539  1  9 10 11 13  1  4  7  8 12
       0.000000105184  1  9 10 11 13  1  4  7  8 13
      -0.000000085655  1  9 10 11 13  1  4  7  9 10
       0.000000218413  1  9 10 11 13  1  4  7  9 11
      -0.000000401406  1  9 10 11 13  1  4  7  9 12
      -0.000000633138  1  9 10 11 13  1  4  7  9 13
      -0.000004448593  1  9 10 11 13  1  5  6  8 10
      -0.000001194317  1  9 10 11 13  1  5  6  8 11
      -0.000001560727  1  9 10 11 13  1  5  6  8 12
       0.000001923540  1  9 10 11 13  1  5  6  8 13
      -0.000001155878  1  9 10 11 13  1  5  6  9 10
      -0.000000370570  1  9 10 11 13  1  5  6  9 11
       0.000000000000  1  9 10 11 13  1  5  6  9 12
      -0.000000267487  1  9 10 11 13  1  5  6  9 13
       0.000005270936  1  9 10 11 13  1  5  7  8 10
       0.000001368616  1  9 10 11 13  1  5  7  8 11
       0.000002192688  1  9 10 11 13  1  5  7  8 12
       0.000000560354  1  9 10 11 13  1  5  7  8 13
       0.000000892210  1  9 10 11 13  1  5  7  9 10
       0.000000375200  1  9 10 11 13  1  5  7  9 11
      -0.000000332943  1  9 10 11 13  1  5  7  9 12
      -0.000000793055  1  9 10 11 13  1  5  7  9 13
       0.000000000000  1  9 10 11 13  1  6  7  8 10
      -0.000001807430  1  9 10 11 13  1  6  7  8 11
      -0.000000348655  1  9 10 11 13  1  6  7  8 12
       0.000001713136  1  9 10 11 13  1  6  7  8 13
       0.000002474617  1  9 10 11 13  1  6  7  9 10
       0.000000969743  1  9 10 11 13  1  6  7  9 11
       0.000000567506  1  9 10 11 13  1  6  7  9 12
      -0.000000402253  1  9 10 11 13  1  6  7  9 13
      -0.000001384139  1  9 10 11 13  1  8 10 11 12
      -0.000011301734  1  9 10 11 13  1  8 10 11 13
      -0.000006994713  1  9 10 11 13  1  8 10 12 13
       0.000001826100  1  9 10 11 13  1  8 11 12 13
      -0.000001044313  1  9 10 11 13  1  9 10 11 12
      -0.000006208243  1  9 10 11 13  1  9 10 11 13
      -0.000005637356  1  9 10 11 13  1  9 10 12 13
      -0.000000486586  1  9 10 11 13  1  9 11 12 13
      -0.000039063372  1  9 10 12 13  1  2  3  8 10
       0.000020311714  1  9 10 12 13  1  2  3  8 11
       0.000007593156  1  9 10 12 13  1  2  3  8 12
      -0.000028053360  1  9 10 12 13  1  2  3  8 13
      -0.000052939539  1  9 10 12 13  1  2  3  9 10
      -0.000013435912  1  9 10 12 13  1  2  3  9 11
       0.000000707804  1  9 10 12 13  1  2  3  9 12
       0.000005941847  1  9 10 12 13  1  2  3  9 13
      -0.000008823245  1  9 10 12 13  1  2  4  8 10
      -0.000014582424  1  9 10 12 13  1  2  4  8 11
      -0.000012167790  1  9 10 12 13  1  2  4  8 12
       0.000000942160  1  9 10 12 13  1  2  4  8 13
       0.000008866001  1  9 10 12 13  1  2  4  9 10
      -0.000005473703  1  9 10 12 13  1  2  4  9 11
      -0.000008395828  1  9 10 12 13  1  2  4  9 12
       0.000000176650  1  9 10 12 13  1  2  4  9 13
      -0.000024537710  1  9 10 12 13  1  2  5  8 10
      -0.000008495619  1  9 10 12 13  1  2  5  8 11
      -0.000002998000  1  9 10 12 13  1  2  5  8 12
      -0.000000935474  1  9 10 12 13  1  2  5  8 13
       0.000008323253  1  9 10 12 13  1  2  5  9 10
      -0.000001660868  1  9 10 12 13  1  2  5  9 11
      -0.000003961582  1  9 10 12 13  1  2  5  9 12
      -0.000003155572  1  9 10 12 13  1  2  5  9 13
      -0.000036348741  1  9 10 12 13  1  2  6  8 10
      -0.000002163968  1  9 10 12 13  1  2  6  8 11
       0.000007063410  1  9 10 12 13  1  2  6  8 12
       0.000004924578  1  9 10 12 13  1  2  6  8 13
      -0.000003735136  1  9 10 12 13  1  2  6  9 10
      -0.000000602042  1  9 10 12 13  1  2  6  9 11
       0.000003949315  1  9 10 12 13  1  2  6  9 12
       0.000004290544  1  9 10 12 13  1  2  6  9 13
       0.000012263780  1  9 10 12 13  1  2  7  8 10
      -0.000006738635  1  9 10 12 13  1  2  7  8 11
      -0.000006922283  1  9 10 12 13  1  2  7  8 12
       0.000001832157  1  9 10 12 13  1  2  7  8 13
       0.000006575245  1  9 10 12 13  1  2  7  9 10
      -0.000006700918  1  9 10 12 13  1  2  7  9 11
      -0.000009378293  1  9 10 12 13  1  2  7  9 12
       0.000001705064  1  9 10 12 13  1  2  7  9 13
       0.000012822813  1  9 10 12 13  1  3  4  8 10
       0.000005328909  1  9 10 12 13  1  3  4  8 11
       0.000003485607  1  9 10 12 13  1  3  4  8 12
      -0.000006167584  1  9 10 12 13  1  3  4  8 13
       0.000000494913  1  9 10 12 13  1  3  4  9 10
       0.000003404749  1  9 10 12 13  1  3  4  9 11
       0.000002502446  1  9 10 12 13  1  3  4  9 12
      -0.000008937363  1  9 10 12 13  1  3  4  9 13
       0.000014037286  1  9 10 12 13  1  3  5  8 10
       0.000004198187  1  9 10 12 13  1  3  5  8 11
      -0.000001478202  1  9 10 12 13  1  3  5  8 12
      -0.000003538198  1  9 10 12 13  1  3  5  8 13
       0.000009030955  1  9 10 12 13  1  3  5  9 10
       0.000006604964  1  9 10 12 13  1  3  5  9 11
       0.000000867046  1  9 10 12 13  1  3  5  9 12
      -0.000012746757  1  9 10 12 13  1  3  5  9 13
      -0.000006640466  1  9 10 12 13  1  3  6  8 10
      -0.000006112164  1  9 10 12 13  1  3  6  8 11
      -0.000003740579  1  9 10 12 13  1  3  6  8 12
       0.000008407152  1  9 10 12 13  1  3  6  8 13
       0.000001267032  1  9 10 12 13  1  3  6  9 10
      -0.000002762580  1  9 10 12 13  1  3  6  9 11
      -0.000004450242  1  9 10 12 13  1  3  6  9 12
       0.000005174500  1  9 10 12 13  1  3  6  9 13
       0.000015444013  1  9 10 12 13  1  3  7  8 10
       0.000000938583  1  9 10 12 13  1  3  7  8 11
       0.000003564812  1  9 10 12 13  1  3  7  8 12
       0.000000238002  1  9 10 12 13  1  3  7  8 13
      -0.000005700500  1  9 10 12 13  1  3  7  9 10
      -0.000000358759  1  9 10 12 13  1  3  7  9 11
       0.000003988971  1  9 10 12 13  1  3  7  9 12
      -0.000002144364  1  9 10 12 13  1  3  7  9 13
       0.000002633680  1  9 10 12 13  1  4  5  8 10
       0.000000459512  1  9 10 12 13  1  4  5  8 11
      -0.000000487545  1  9 10 12 13  1  4  5  8 12
      -0.000001423113  1  9 10 12 13  1  4  5  8 13
       0.000000135025  1  9 10 12 13  1  4  5  9 10
      -0.000000406323  1  9 10 12 13  1  4  5  9 11
       0.000000000000  1  9 10 12 13  1  4  5  9 12
       0.000000174679  1  9 10 12 13  1  4  5  9 13
       0.000000119942  1  9 10 12 13  1  4  6  8 10
      -0.000002458207  1  9 10 12 13  1  4  6  8 11
      -0.000001304251  1  9 10 12 13  1  4  6  8 12
       0.000005931607  1  9 10 12 13  1  4  6  8 13
       0.000002741026  1  9 10 12 13  1  4  6  9 10
       0.000001465557  1  9 10 12 13  1  4  6  9 11
       0.000000633653  1  9 10 12 13  1  4  6  9 12
      -0.000002198746  1  9 10 12 13  1  4  6  9 13
      -0.000001765191  1  9 10 12 13  1  4  7  8 10
       0.000000149620  1  9 10 12 13  1  4  7  8 11
       0.000000628097  1  9 10 12 13  1  4  7  8 12
      -0.000000079320  1  9 10 12 13  1  4  7  8 13
      -0.000000966940  1  9 10 12 13  1  4  7  9 10
      -0.000000286051  1  9 10 12 13  1  4  7  9 11
      -0.000000662632  1  9 10 12 13  1  4  7  9 12
       0.000000100385  1  9 10 12 13  1  4  7  9 13
      -0.000004475915  1  9 10 12 13  1  5  6  8 10
      -0.000004640456  1  9 10 12 13  1  5  6  8 11
      -0.000001557157  1  9 10 12 13  1  5  6  8 12
       0.000008069289  1  9 10 12 13  1  5  6  8 13
       0.000003131965  1  9 10 12 13  1  5  6  9 10
       0.000001518986  1  9 10 12 13  1  5  6  9 11
       0.000000331031  1  9 10 12 13  1  5  6  9 12
      -0.000002039095  1  9 10 12 13  1  5  6  9 13
      -0.000002789167  1  9 10 12 13  1  5  7  8 10
      -0.000000237372  1  9 10 12 13  1  5  7  8 11
       0.000000762449  1  9 10 12 13  1  5  7  8 12
       0.000000492064  1  9 10 12 13  1  5  7  8 13
      -0.000001657064  1  9 10 12 13  1  5  7  9 10
       0.000000082241  1  9 10 12 13  1  5  7  9 11
      -0.000000328066  1  9 10 12 13  1  5  7  9 12
      -0.000000089686  1  9 10 12 13  1  5  7  9 13
      -0.000001850880  1  9 10 12 13  1  6  7  8 10
       0.000000133944  1  9 10 12 13  1  6  7  8 11
       0.000001092610  1  9 10 12 13  1  6  7  8 12
      -0.000001717326  1  9 10 12 13  1  6  7  8 13
      -0.000001753925  1  9 10 12 13  1  6  7  9 10
      -0.000000146744  1  9 10 12 13  1  6  7  9 11
      -0.000000193372  1  9 10 12 13  1  6  7  9 12
       0.000000282737  1  9 10 12 13  1  6  7  9 13
      -0.000010321609  1  9 10 12 13  1  8 10 11 12
      -0.000006837729  1  9 10 12 13  1  8 10 11 13
      -0.000013960244  1  9 10 12 13  1  8 10 12 13
       0.000001791018  1  9 10 12 13  1  8 11 12 13
      -0.000006554906  1  9 10 12 13  1  9 10 11 12
      -0.000005637356  1  9 10 12 13  1  9 10 11 13
      -0.000011972457  1  9 10 12 13  1  9 10 12 13
      -0.000000319007  1  9 10 12 13  1  9 11 12 13
      -0.000048588973  1  9 11 12 13  1  2  3  8 10
      -0.000015325457  1  9 11 12 13  1  2  3  8 11
      -0.000005028706  1  9 11 12 13  1  2  3  8 12
       0.000016684134  1  9 11 12 13  1  2  3  8 13
       0.000021775483  1  9 11 12 13  1  2  3  9 10
      -0.000001870762  1  9 11 12 13  1  2  3  9 11
       0.000001631484  1  9 11 12 13  1  2  3  9 12
       0.000006175314  1  9 11 12 13  1  2  3  9 13
       0.000007388640  1  9 11 12 13  1  2  4  8 10
       0.000001369441  1  9 11 12 13  1  2  4  8 11
       0.000002140209  1  9 11 12 13  1  2  4  8 12
      -0.000000268476  1  9 11 12 13  1  2  4  8 13
      -0.000000215209  1  9 11 12 13  1  2  4  9 10
       0.000000279902  1  9 11 12 13  1  2  4  9 11
      -0.000001107859  1  9 11 12 13  1  2  4  9 12
      -0.000001638032  1  9 11 12 13  1  2  4  9 13
       0.000015734007  1  9 11 12 13  1  2  5  8 10
       0.000003024222  1  9 11 12 13  1  2  5  8 11
       0.000003284873  1  9 11 12 13  1  2  5  8 12
      -0.000000782445  1  9 11 12 13  1  2  5  8 13
      -0.000000305613  1  9 11 12 13  1  2  5  9 10
       0.000000184222  1  9 11 12 13  1  2  5  9 11
      -0.000001881158  1  9 11 12 13  1  2  5  9 12
      -0.000003065358  1  9 11 12 13  1  2  5  9 13
       0.000013698083  1  9 11 12 13  1  2  6  8 10
      -0.000001565796  1  9 11 12 13  1  2  6  8 11
       0.000000457953  1  9 11 12 13  1  2  6  8 12
       0.000005268546  1  9 11 12 13  1  2  6  8 13
       0.000004947020  1  9 11 12 13  1  2  6  9 10
       0.000003829893  1  9 11 12 13  1  2  6  9 11
       0.000001889396  1  9 11 12 13  1  2  6  9 12
      -0.000003196329  1  9 11 12 13  1  2  6  9 13
      -0.000003237471  1  9 11 12 13  1  2  7  8 10
       0.000000429951  1  9 11 12 13  1  2  7  8 11
       0.000001765962  1  9 11 12 13  1  2  7  8 12
       0.000000159542  1  9 11 12 13  1  2  7  8 13
       0.000000502504  1  9 11 12 13  1  2  7  9 10
      -0.000000171112  1  9 11 12 13  1  2  7  9 11
       0.000000295704  1  9 11 12 13  1  2  7  9 12
       0.000000206722  1  9 11 12 13  1  2  7  9 13
      -0.000009998562  1  9 11 12 13  1  3  4  8 10
       0.000000348448  1  9 11 12 13  1  3  4  8 11
      -0.000001017737  1  9 11 12 13  1  3  4  8 12
      -0.000001313511  1  9 11 12 13  1  3  4  8 13
      -0.000002987033  1  9 11 12 13  1  3  4  9 10
      -0.000001539747  1  9 11 12 13  1  3  4  9 11
       0.000000635626  1  9 11 12 13  1  3  4  9 12
       0.000001519899  1  9 11 12 13  1  3  4  9 13
      -0.000005584443  1  9 11 12 13  1  3  5  8 10
       0.000000427933  1  9 11 12 13  1  3  5  8 11
      -0.000000654408  1  9 11 12 13  1  3  5  8 12
      -0.000000893840  1  9 11 12 13  1  3  5  8 13
      -0.000003245958  1  9 11 12 13  1  3  5  9 10
      -0.000001509774  1  9 11 12 13  1  3  5  9 11
       0.000000287891  1  9 11 12 13  1  3  5  9 12
       0.000000902790  1  9 11 12 13  1  3  5  9 13
       0.000003834148  1  9 11 12 13  1  3  6  8 10
       0.000000132991  1  9 11 12 13  1  3  6  8 11
       0.000000767227  1  9 11 12 13  1  3  6  8 12
       0.000000483172  1  9 11 12 13  1  3  6  8 13
       0.000001254194  1  9 11 12 13  1  3  6  9 10
       0.000000652854  1  9 11 12 13  1  3  6  9 11
      -0.000000078978  1  9 11 12 13  1  3  6  9 12
      -0.000000382096  1  9 11 12 13  1  3  6  9 13
      -0.000008417637  1  9 11 12 13  1  3  7  8 10
       0.000001046779  1  9 11 12 13  1  3  7  8 11
      -0.000001498413  1  9 11 12 13  1  3  7  8 12
      -0.000002609833  1  9 11 12 13  1  3  7  8 13
      -0.000003271319  1  9 11 12 13  1  3  7  9 10
      -0.000001699317  1  9 11 12 13  1  3  7  9 11
      -0.000000370755  1  9 11 12 13  1  3  7  9 12
       0.000001932853  1  9 11 12 13  1  3  7  9 13
      -0.000000346737  1  9 11 12 13  1  4  5  8 10
      -0.000000327066  1  9 11 12 13  1  4  5  8 11
      -0.000001125821  1  9 11 12 13  1  4  5  8 12
      -0.000000979523  1  9 11 12 13  1  4  5  8 13
      -0.000000660238  1  9 11 12 13  1  4  5  9 10
      -0.000000100385  1  9 11 12 13  1  4  5  9 11
       0.000000000000  1  9 11 12 13  1  4  5  9 12
       0.000000143072  1  9 11 12 13  1  4  5  9 13
       0.000002101420  1  9 11 12 13  1  4  6  8 10
       0.000001600984  1  9 11 12 13  1  4  6  8 11
       0.000000000000  1  9 11 12 13  1  4  6  8 12
      -0.000001096148  1  9 11 12 13  1  4  6  8 13
      -0.000002059643  1  9 11 12 13  1  4  6  9 10
      -0.000000401521  1  9 11 12 13  1  4  6  9 11
      -0.000000127501  1  9 11 12 13  1  4  6  9 12
       0.000000063967  1  9 11 12 13  1  4  6  9 13
       0.000000077473  1  9 11 12 13  1  4  7  8 10
      -0.000000297867  1  9 11 12 13  1  4  7  8 11
       0.000000695510  1  9 11 12 13  1  4  7  8 12
       0.000000794234  1  9 11 12 13  1  4  7  8 13
       0.000000993119  1  9 11 12 13  1  4  7  9 10
       0.000000153173  1  9 11 12 13  1  4  7  9 11
       0.000000000000  1  9 11 12 13  1  4  7  9 12
      -0.000000230390  1  9 11 12 13  1  4  7  9 13
       0.000002148572  1  9 11 12 13  1  5  6  8 10
       0.000001319642  1  9 11 12 13  1  5  6  8 11
      -0.000000216540  1  9 11 12 13  1  5  6  8 12
      -0.000000923058  1  9 11 12 13  1  5  6  8 13
      -0.000001686245  1  9 11 12 13  1  5  6  9 10
      -0.000000307132  1  9 11 12 13  1  5  6  9 11
      -0.000000094278  1  9 11 12 13  1  5  6  9 12
       0.000000088757  1  9 11 12 13  1  5  6  9 13
      -0.000000111644  1  9 11 12 13  1  5  7  8 10
       0.000000000000  1  9 11 12 13  1  5  7  8 11
       0.000001092073  1  9 11 12 13  1  5  7  8 12
       0.000001323104  1  9 11 12 13  1  5  7  8 13
       0.000001503482  1  9 11 12 13  1  5  7  9 10
       0.000000342581  1  9 11 12 13  1  5  7  9 11
       0.000000175477  1  9 11 12 13  1  5  7  9 12
      -0.000000319525  1  9 11 12 13  1  5  7  9 13
      -0.000002511214  1  9 11 12 13  1  6  7  8 10
      -0.000001704643  1  9 11 12 13  1  6  7  8 11
      -0.000000871634  1  9 11 12 13  1  6  7  8 12
       0.000001315080  1  9 11 12 13  1  6  7  8 13
       0.000001441241  1  9 11 12 13  1  6  7  9 10
       0.000000142848  1  9 11 12 13  1  6  7  9 11
       0.000000310126  1  9 11 12 13  1  6  7  9 12
       0.000000186375  1  9 11 12 13  1  6  7  9 13
       0.000000711503  1  9 11 12 13  1  8 10 11 12
       0.000001534563  1  9 11 12 13  1  8 10 11 13
       0.000001375961  1  9 11 12 13  1  8 10 12 13
       0.000001851940  1  9 11 12 13  1  8 11 12 13
       0.000001120703  1  9 11 12 13  1  9 10 11 12
      -0.000000486586  1  9 11 12 13  1  9 10 11 13
      -0.000000319007  1  9 11 12 13  1  9 10 12 13
       0.000000063460  1  9 11 12 13  1  9 11 12 13
 /EOF
 !FCI STATE  1.1 Dipole moment          0.00000000     0.00000000     0.99045414
 Dipole moment /Debye                   0.00000000     0.00000000     2.51731845


 **********************************************************************************************************************************
 DATASETS  * FILE   NREC   LENGTH (MB)   RECORD NAMES
              1      19       29.97       500      700      610      900      950      970     1000      129      960     1100   
                                          VAR     GEOM    BASINP   SYMINP    ZMAT    AOBASIS   BASIS     P2S    ABASIS      S 
                                         1400     1410     1200     1210     1080     1600     1650     1300     1700   
                                           T        V       H0       H01     AOSYM     SMH    MOLCAS    ERIS     OPER   

              3       5       14.78       500      610      700     1000     2100   
                                          VAR    BASINP    GEOM     BASIS     RHF  

 PROGRAMS   *        TOTAL       FCI       INT   RESTART
 CPU TIMES  *         1.46      1.11      0.24      0.02
 REAL TIME  *         2.08 SEC
 DISK USED  *        58.35 MB
 **********************************************************************************************************************************
 Molecular orbitals read from record     2100.3  Type=RHF/CANONICAL (state 1.1)
 Occupation numbers read from record     2100.3  Type=RHF/RHF (state 1.1)
 Orbital energies read from record       2100.3  Type=RHF/CANONICAL (state 1.1)
 Redundancy group numbers read from rec  2100.3  Type=RHF/RHF (state 1.1)

 FCI/6-31G energy=    -76.120109724097

             FCI
    -76.12010972
 **********************************************************************************************************************************
 Molpro calculation terminated
