
 Primary working directories    : /scr/yuriaoto/job.023646/molpro.f2DQ1oa6N1
 Secondary working directories  : /scr/yuriaoto/job.023646/molpro.f2DQ1oa6N1
 Wavefunction directory         : /scr/yuriaoto/job.023646/
 Main file repository           : /scr/yuriaoto/job.023646/molpro.f2DQ1oa6N1/

 id        : yuriaoto

 Nodes             nprocs
 t-rex.ufabc.int.br    1

 Using customized tuning parameters: mindgm=8; mindgv=16; mindgc=1; mindgr=1; noblas=0; minvec=7
 default implementation of scratch files=df  


 Variables initialized (933), CPU time= 0.00 sec
 ***,
 memory,40,m
 gprint,orbital,basis,civector
 gthresh,thrprint=0,printci=0.0
 file,3,wfu.dat,old
 
 {ccsd,CC_NORM_MAX=10000.0
 nosingle
 thresh,printci=0.0,ENERGY=1.0E-10,COEFF=1.0E-12
 print,ref=1
 core,0
 wf,24,1,0;
 }
 
 Commands  initialized (760), CPU time= 0.01 sec, 617 directives.
 Default parameters read. Elapsed time= 0.04 sec

 Checking input...
 Passed
1


                                         ***  PROGRAM SYSTEM MOLPRO  ***
                                       Copyright, TTI GmbH Stuttgart, 2015
                                    Version 2019.2 linked Abr  7 2019 15:10:35


 **********************************************************************************************************************************
 LABEL *                                                                                 
  64 bit serial version                                                                  DATE: 05-Jun-20          TIME: 22:21:47  
 **********************************************************************************************************************************

 SHA1:             3a8a58c585c929645742fb5a1b7541a4ad1da699
 **********************************************************************************************************************************


 THRESHOLDS:

 ZERO    =  1.00D-12  ONEINT  =  1.00D-12  TWOINT  =  1.00D-11  PREFAC  =  1.00D-14  XXXXXX  =  1.00D-09  EORDER  =  1.00D-04
 ENERGY  =  0.00D+00  ETEST   =  0.00D+00  EDENS   =  0.00D+00  THRDEDEF=  1.00D-06  GRADIENT=  1.00D-02  STEP    =  1.00D-03
 ORBITAL =  1.00D-05  CIVEC   =  1.00D-05  COEFF   =  1.00D-04  PRINTCI =  0.00D+00  PUNCHCI =  9.90D+01  OPTGRAD =  3.00D-04
 OPTENERG=  1.00D-06  OPTSTEP =  3.00D-04  THRGRAD =  1.00D-10  COMPRESS=  1.00D-11  VARMIN  =  1.00D-07  VARMAX  =  1.00D-03
 THRDOUB =  0.00D+00  THRDIV  =  1.00D-05  THRRED  =  1.00D-07  THRPSP  =  1.00D+00  THRDC   =  1.00D-10  THRCS   =  1.00D-10
 THRNRM  =  1.00D-08  THREQ   =  0.00D+00  THRDE   =  1.00D+00  THRREF  =  1.00D-05  SPARFAC =  1.00D+00  THRDLP  =  1.00D-07
 THRDIA  =  1.00D-10  THRDLS  =  1.00D-07  THRGPS  =  0.00D+00  THRKEX  =  0.00D+00  THRDIS  =  2.00D-01  THRVAR  =  1.00D-10
 THRLOC  =  1.00D-06  THRGAP  =  1.00D-06  THRLOCT = -1.00D+00  THRGAPT = -1.00D+00  THRORB  =  1.00D-06  THRMLTP =  0.00D+00
 THRCPQCI=  1.00D-10  KEXTA   =  0.00D+00  THRCOARS=  0.00D+00  SYMTOL  =  1.00D-06  GRADTOL =  1.00D-06  THROVL  =  1.00D-08
 THRORTH =  1.00D-08  GRID    =  1.00D-06  GRIDMAX =  1.00D-03  DTMAX   =  0.00D+00  THROCCDE=  1.00D-01  THROCCDE=  1.00D-01
 THRPRINT=  0.00D+00


 Variable memory set to   40000000 words,  buffer space 



 Permanent file  3  wfu.dat  assigned.  Implementation=df    Size= 14.23 MB


 PROGRAM * RESTART 


 Reading variables from file 3

 _FNUC           =      0.00000000
 _BASIS          =    6-31G
 _NELEC          =     24.00000000
 _PROGRAM        =    RHF-SCF
 _DMZ            =      0.00000000
 _DMX_SCF        =      0.00000000
 _DMY_SCF        =      0.00000000
 _DMZ_SCF        =      0.00000000
 _HOMO           =      2.20000000
 _EHOMO          =     -0.16514840
 _LUMO           =      2.40000000
 _ELUMO          =      0.01204027
 _ENERGY         =    -59.51321462
 _ENERGY_METHOD  =    RHF
 _ENERGY_BASIS   =    6-31G
 _ENUC           =     36.18727945
 _EPS1(1:9)      =     -2.44606597    -0.27154166     0.01387583     0.01387583     0.01974738     0.16967502
                        0.16967502     0.17748779     0.65577377
 _EPS2(1:9)      =     -2.44595365    -0.16514840     0.06583970     0.08024304     0.10918713     0.20947133
                        0.21026523     0.32305975     0.77430831
 _EPS3(1:9)      =     -2.44595365    -0.16514840     0.06583970     0.08024304     0.10918713     0.20947133
                        0.21026523     0.32305975     0.77430831
 _EPS4(1:9)      =     -2.44586539     0.01204027     0.11857342     0.14587398     0.15178986     0.25645901
                        0.35040202     0.43718871     1.07484211
 _EPS5(1:9)      =     -2.44595365    -0.16514840     0.06583970     0.08024304     0.10918713     0.20947133
                        0.21026523     0.32305975     0.77430831
 _EPS6(1:9)      =     -2.44586539     0.01204027     0.11857342     0.14587398     0.15178986     0.25645901
                        0.35040202     0.43718871     1.07484211
 _EPS7(1:9)      =     -2.44586539     0.01204027     0.11857342     0.14587398     0.15178986     0.25645901
                        0.35040202     0.43718871     1.07484211
 _EPS8(1:9)      =     -2.44578039     0.06692471     0.18257294     0.18257294     0.19933103     0.41404808
                        0.41404808     0.60754299     1.43040756
 _IPROC_MPP      =      0.00000000
 _IPROC_MPPX     =      0.00000000
 _ORBITAL        =   2100.30000000
 _STATUS         =      1.00000000
 _DATE           =    23-Mar-20
 _LASTORB        =    RHF
 _OUTPUT         =    /scr/yuriaoto/job.022842/RHF.xml
 _PGROUP         =    D2h 
 _TIME           =    15:18:14
 R               =      1.50000000

 Geometry written to block  1 of record 700


 **********************************************************************************************************************************
 DATASETS  * FILE   NREC   LENGTH (MB)   RECORD NAMES
              3       5       14.92       500      610      700     1000     2100   
                                          VAR    BASINP    GEOM     BASIS     RHF  

 PROGRAMS   *        TOTAL   RESTART
 CPU TIMES  *         0.12      0.02
 REAL TIME  *         0.15 SEC
 DISK USED  *        27.01 MB
 **********************************************************************************************************************************


 Recomputing integrals since basis changed


 Using spherical harmonics

 Library entry LI     S 6-31G                selected for orbital group  1
 Library entry LI     P 6-31G                selected for orbital group  1


 PROGRAM * SEWARD (Integral evaluation for generally contracted gaussian basis sets)     Author: Roland Lindh, 1990

 Geometry written to block  1 of record 700


 Point group  D2h 



 ATOMIC COORDINATES

 NR  ATOM    CHARGE       X              Y              Z

   1  LI1     3.00    2.834589187    2.834589187    2.834589187
   2  LI2     3.00   -2.834589187   -2.834589187    2.834589187
   3  LI3     3.00    2.834589187   -2.834589187    2.834589187
   4  LI4     3.00   -2.834589187    2.834589187    2.834589187
   5  LI5     3.00    2.834589187    2.834589187   -2.834589187
   6  LI6     3.00   -2.834589187   -2.834589187   -2.834589187
   7  LI7     3.00    2.834589187   -2.834589187   -2.834589187
   8  LI8     3.00   -2.834589187    2.834589187   -2.834589187

 Bond lengths in Bohr (Angstrom)

 1-3  5.669178374  1-4  5.669178374  1-5  5.669178374  2-3  5.669178374  2-4  5.669178374
     ( 3.000000000)     ( 3.000000000)     ( 3.000000000)     ( 3.000000000)     ( 3.000000000)

 2-6  5.669178374  3-7  5.669178374  4-8  5.669178374  5-7  5.669178374  5-8  5.669178374
     ( 3.000000000)     ( 3.000000000)     ( 3.000000000)     ( 3.000000000)     ( 3.000000000)

 6-7  5.669178374  6-8  5.669178374
     ( 3.000000000)     ( 3.000000000)

 Bond angles

  1-3-2   90.00000000   1-3-7   90.00000000   1-4-2   90.00000000   1-4-8   90.00000000

  1-5-7   90.00000000   1-5-8   90.00000000   2-3-7   90.00000000   2-4-8   90.00000000

  2-6-7   90.00000000   2-6-8   90.00000000   3-1-4   90.00000000   3-1-5   90.00000000

  3-2-4   90.00000000   3-2-6   90.00000000   3-7-5   90.00000000   3-7-6   90.00000000

  4-1-5   90.00000000   4-2-6   90.00000000   4-8-5   90.00000000   4-8-6   90.00000000

  5-7-6   90.00000000   5-8-6   90.00000000   7-5-8   90.00000000   7-6-8   90.00000000


 BASIS DATA

   Nr Sym  Nuc  Type         Exponents   Contraction coefficients

    1.1 Ag    1  1s         642.418910     0.002143
              2  1s          96.798515     0.016209
              3  1s          22.091121     0.077316
              4  1s           6.201070     0.245786
              5  1s           1.935118     0.470189
              6  1s           0.636736     0.345471
              7  1s    
              8  1s    
    2.1 Ag    1  1s           2.324918    -0.035092
              2  1s           0.632430    -0.191233
              3  1s           0.079053     1.083988
              4  1s    
              5  1s    
              6  1s    
              7  1s    
              8  1s    
    3.1 Ag    1  1s           0.035962     1.000000
              2  1s    
              3  1s    
              4  1s    
              5  1s    
              6  1s    
              7  1s    
              8  1s    
    4.1 Ag    1  2px          2.324918     0.008942
              2 -2px          0.632430     0.141009
              3  2px          0.079053     0.945364
              4 -2px   
              5  2px   
              6 -2px   
              7  2px   
              8 -2px   
    5.1 Ag    1  2py          2.324918     0.008942
              2 -2py          0.632430     0.141009
              3 -2py          0.079053     0.945364
              4  2py   
              5  2py   
              6 -2py   
              7 -2py   
              8  2py   
    6.1 Ag    1  2pz          2.324918     0.008942
              2  2pz          0.632430     0.141009
              3  2pz          0.079053     0.945364
              4  2pz   
              5 -2pz   
              6 -2pz   
              7 -2pz   
              8 -2pz   
    7.1 Ag    1  2px          0.035962     1.000000
              2 -2px   
              3  2px   
              4 -2px   
              5  2px   
              6 -2px   
              7  2px   
              8 -2px   
    8.1 Ag    1  2py          0.035962     1.000000
              2 -2py   
              3 -2py   
              4  2py   
              5  2py   
              6 -2py   
              7 -2py   
              8  2py   
    9.1 Ag    1  2pz          0.035962     1.000000
              2  2pz   
              3  2pz   
              4  2pz   
              5 -2pz   
              6 -2pz   
              7 -2pz   
              8 -2pz   
    1.2 B3u   1  1s         642.418910     0.002143
              2 -1s          96.798515     0.016209
              3  1s          22.091121     0.077316
              4 -1s           6.201070     0.245786
              5  1s           1.935118     0.470189
              6 -1s           0.636736     0.345471
              7  1s    
              8 -1s    
    2.2 B3u   1  1s           2.324918    -0.035092
              2 -1s           0.632430    -0.191233
              3  1s           0.079053     1.083988
              4 -1s    
              5  1s    
              6 -1s    
              7  1s    
              8 -1s    
    3.2 B3u   1  1s           0.035962     1.000000
              2 -1s    
              3  1s    
              4 -1s    
              5  1s    
              6 -1s    
              7  1s    
              8 -1s    
    4.2 B3u   1  2px          2.324918     0.008942
              2  2px          0.632430     0.141009
              3  2px          0.079053     0.945364
              4  2px   
              5  2px   
              6  2px   
              7  2px   
              8  2px   
    5.2 B3u   1  2py          2.324918     0.008942
              2  2py          0.632430     0.141009
              3 -2py          0.079053     0.945364
              4 -2py   
              5  2py   
              6  2py   
              7 -2py   
              8 -2py   
    6.2 B3u   1  2pz          2.324918     0.008942
              2 -2pz          0.632430     0.141009
              3  2pz          0.079053     0.945364
              4 -2pz   
              5 -2pz   
              6  2pz   
              7 -2pz   
              8  2pz   
    7.2 B3u   1  2px          0.035962     1.000000
              2  2px   
              3  2px   
              4  2px   
              5  2px   
              6  2px   
              7  2px   
              8  2px   
    8.2 B3u   1  2py          0.035962     1.000000
              2  2py   
              3 -2py   
              4 -2py   
              5  2py   
              6  2py   
              7 -2py   
              8 -2py   
    9.2 B3u   1  2pz          0.035962     1.000000
              2 -2pz   
              3  2pz   
              4 -2pz   
              5 -2pz   
              6  2pz   
              7 -2pz   
              8  2pz   
    1.3 B2u   1  1s         642.418910     0.002143
              2 -1s          96.798515     0.016209
              3 -1s          22.091121     0.077316
              4  1s           6.201070     0.245786
              5  1s           1.935118     0.470189
              6 -1s           0.636736     0.345471
              7 -1s    
              8  1s    
    2.3 B2u   1  1s           2.324918    -0.035092
              2 -1s           0.632430    -0.191233
              3 -1s           0.079053     1.083988
              4  1s    
              5  1s    
              6 -1s    
              7 -1s    
              8  1s    
    3.3 B2u   1  1s           0.035962     1.000000
              2 -1s    
              3 -1s    
              4  1s    
              5  1s    
              6 -1s    
              7 -1s    
              8  1s    
    4.3 B2u   1  2py          2.324918     0.008942
              2  2py          0.632430     0.141009
              3  2py          0.079053     0.945364
              4  2py   
              5  2py   
              6  2py   
              7  2py   
              8  2py   
    5.3 B2u   1  2px          2.324918     0.008942
              2  2px          0.632430     0.141009
              3 -2px          0.079053     0.945364
              4 -2px   
              5  2px   
              6  2px   
              7 -2px   
              8 -2px   
    6.3 B2u   1  2pz          2.324918     0.008942
              2 -2pz          0.632430     0.141009
              3 -2pz          0.079053     0.945364
              4  2pz   
              5 -2pz   
              6  2pz   
              7  2pz   
              8 -2pz   
    7.3 B2u   1  2py          0.035962     1.000000
              2  2py   
              3  2py   
              4  2py   
              5  2py   
              6  2py   
              7  2py   
              8  2py   
    8.3 B2u   1  2px          0.035962     1.000000
              2  2px   
              3 -2px   
              4 -2px   
              5  2px   
              6  2px   
              7 -2px   
              8 -2px   
    9.3 B2u   1  2pz          0.035962     1.000000
              2 -2pz   
              3 -2pz   
              4  2pz   
              5 -2pz   
              6  2pz   
              7  2pz   
              8 -2pz   
    1.4 B1g   1  1s         642.418910     0.002143
              2  1s          96.798515     0.016209
              3 -1s          22.091121     0.077316
              4 -1s           6.201070     0.245786
              5  1s           1.935118     0.470189
              6  1s           0.636736     0.345471
              7 -1s    
              8 -1s    
    2.4 B1g   1  1s           2.324918    -0.035092
              2  1s           0.632430    -0.191233
              3 -1s           0.079053     1.083988
              4 -1s    
              5  1s    
              6  1s    
              7 -1s    
              8 -1s    
    3.4 B1g   1  1s           0.035962     1.000000
              2  1s    
              3 -1s    
              4 -1s    
              5  1s    
              6  1s    
              7 -1s    
              8 -1s    
    4.4 B1g   1  2py          2.324918     0.008942
              2 -2py          0.632430     0.141009
              3  2py          0.079053     0.945364
              4 -2py   
              5  2py   
              6 -2py   
              7  2py   
              8 -2py   
    5.4 B1g   1  2px          2.324918     0.008942
              2 -2px          0.632430     0.141009
              3 -2px          0.079053     0.945364
              4  2px   
              5  2px   
              6 -2px   
              7 -2px   
              8  2px   
    6.4 B1g   1  2pz          2.324918     0.008942
              2  2pz          0.632430     0.141009
              3 -2pz          0.079053     0.945364
              4 -2pz   
              5 -2pz   
              6 -2pz   
              7  2pz   
              8  2pz   
    7.4 B1g   1  2py          0.035962     1.000000
              2 -2py   
              3  2py   
              4 -2py   
              5  2py   
              6 -2py   
              7  2py   
              8 -2py   
    8.4 B1g   1  2px          0.035962     1.000000
              2 -2px   
              3 -2px   
              4  2px   
              5  2px   
              6 -2px   
              7 -2px   
              8  2px   
    9.4 B1g   1  2pz          0.035962     1.000000
              2  2pz   
              3 -2pz   
              4 -2pz   
              5 -2pz   
              6 -2pz   
              7  2pz   
              8  2pz   
    1.5 B1u   1  1s         642.418910     0.002143
              2  1s          96.798515     0.016209
              3  1s          22.091121     0.077316
              4  1s           6.201070     0.245786
              5 -1s           1.935118     0.470189
              6 -1s           0.636736     0.345471
              7 -1s    
              8 -1s    
    2.5 B1u   1  1s           2.324918    -0.035092
              2  1s           0.632430    -0.191233
              3  1s           0.079053     1.083988
              4  1s    
              5 -1s    
              6 -1s    
              7 -1s    
              8 -1s    
    3.5 B1u   1  1s           0.035962     1.000000
              2  1s    
              3  1s    
              4  1s    
              5 -1s    
              6 -1s    
              7 -1s    
              8 -1s    
    4.5 B1u   1  2pz          2.324918     0.008942
              2  2pz          0.632430     0.141009
              3  2pz          0.079053     0.945364
              4  2pz   
              5  2pz   
              6  2pz   
              7  2pz   
              8  2pz   
    5.5 B1u   1  2px          2.324918     0.008942
              2 -2px          0.632430     0.141009
              3  2px          0.079053     0.945364
              4 -2px   
              5 -2px   
              6  2px   
              7 -2px   
              8  2px   
    6.5 B1u   1  2py          2.324918     0.008942
              2 -2py          0.632430     0.141009
              3 -2py          0.079053     0.945364
              4  2py   
              5 -2py   
              6  2py   
              7  2py   
              8 -2py   
    7.5 B1u   1  2pz          0.035962     1.000000
              2  2pz   
              3  2pz   
              4  2pz   
              5  2pz   
              6  2pz   
              7  2pz   
              8  2pz   
    8.5 B1u   1  2px          0.035962     1.000000
              2 -2px   
              3  2px   
              4 -2px   
              5 -2px   
              6  2px   
              7 -2px   
              8  2px   
    9.5 B1u   1  2py          0.035962     1.000000
              2 -2py   
              3 -2py   
              4  2py   
              5 -2py   
              6  2py   
              7  2py   
              8 -2py   
    1.6 B2g   1  1s         642.418910     0.002143
              2 -1s          96.798515     0.016209
              3  1s          22.091121     0.077316
              4 -1s           6.201070     0.245786
              5 -1s           1.935118     0.470189
              6  1s           0.636736     0.345471
              7 -1s    
              8  1s    
    2.6 B2g   1  1s           2.324918    -0.035092
              2 -1s           0.632430    -0.191233
              3  1s           0.079053     1.083988
              4 -1s    
              5 -1s    
              6  1s    
              7 -1s    
              8  1s    
    3.6 B2g   1  1s           0.035962     1.000000
              2 -1s    
              3  1s    
              4 -1s    
              5 -1s    
              6  1s    
              7 -1s    
              8  1s    
    4.6 B2g   1  2pz          2.324918     0.008942
              2 -2pz          0.632430     0.141009
              3  2pz          0.079053     0.945364
              4 -2pz   
              5  2pz   
              6 -2pz   
              7  2pz   
              8 -2pz   
    5.6 B2g   1  2px          2.324918     0.008942
              2  2px          0.632430     0.141009
              3  2px          0.079053     0.945364
              4  2px   
              5 -2px   
              6 -2px   
              7 -2px   
              8 -2px   
    6.6 B2g   1  2py          2.324918     0.008942
              2  2py          0.632430     0.141009
              3 -2py          0.079053     0.945364
              4 -2py   
              5 -2py   
              6 -2py   
              7  2py   
              8  2py   
    7.6 B2g   1  2pz          0.035962     1.000000
              2 -2pz   
              3  2pz   
              4 -2pz   
              5  2pz   
              6 -2pz   
              7  2pz   
              8 -2pz   
    8.6 B2g   1  2px          0.035962     1.000000
              2  2px   
              3  2px   
              4  2px   
              5 -2px   
              6 -2px   
              7 -2px   
              8 -2px   
    9.6 B2g   1  2py          0.035962     1.000000
              2  2py   
              3 -2py   
              4 -2py   
              5 -2py   
              6 -2py   
              7  2py   
              8  2py   
    1.7 B3g   1  1s         642.418910     0.002143
              2 -1s          96.798515     0.016209
              3 -1s          22.091121     0.077316
              4  1s           6.201070     0.245786
              5 -1s           1.935118     0.470189
              6  1s           0.636736     0.345471
              7  1s    
              8 -1s    
    2.7 B3g   1  1s           2.324918    -0.035092
              2 -1s           0.632430    -0.191233
              3 -1s           0.079053     1.083988
              4  1s    
              5 -1s    
              6  1s    
              7  1s    
              8 -1s    
    3.7 B3g   1  1s           0.035962     1.000000
              2 -1s    
              3 -1s    
              4  1s    
              5 -1s    
              6  1s    
              7  1s    
              8 -1s    
    4.7 B3g   1  2pz          2.324918     0.008942
              2 -2pz          0.632430     0.141009
              3 -2pz          0.079053     0.945364
              4  2pz   
              5  2pz   
              6 -2pz   
              7 -2pz   
              8  2pz   
    5.7 B3g   1  2py          2.324918     0.008942
              2  2py          0.632430     0.141009
              3  2py          0.079053     0.945364
              4  2py   
              5 -2py   
              6 -2py   
              7 -2py   
              8 -2py   
    6.7 B3g   1  2px          2.324918     0.008942
              2  2px          0.632430     0.141009
              3 -2px          0.079053     0.945364
              4 -2px   
              5 -2px   
              6 -2px   
              7  2px   
              8  2px   
    7.7 B3g   1  2pz          0.035962     1.000000
              2 -2pz   
              3 -2pz   
              4  2pz   
              5  2pz   
              6 -2pz   
              7 -2pz   
              8  2pz   
    8.7 B3g   1  2py          0.035962     1.000000
              2  2py   
              3  2py   
              4  2py   
              5 -2py   
              6 -2py   
              7 -2py   
              8 -2py   
    9.7 B3g   1  2px          0.035962     1.000000
              2  2px   
              3 -2px   
              4 -2px   
              5 -2px   
              6 -2px   
              7  2px   
              8  2px   
    1.8 Au    1  1s         642.418910     0.002143
              2  1s          96.798515     0.016209
              3 -1s          22.091121     0.077316
              4 -1s           6.201070     0.245786
              5 -1s           1.935118     0.470189
              6 -1s           0.636736     0.345471
              7  1s    
              8  1s    
    2.8 Au    1  1s           2.324918    -0.035092
              2  1s           0.632430    -0.191233
              3 -1s           0.079053     1.083988
              4 -1s    
              5 -1s    
              6 -1s    
              7  1s    
              8  1s    
    3.8 Au    1  1s           0.035962     1.000000
              2  1s    
              3 -1s    
              4 -1s    
              5 -1s    
              6 -1s    
              7  1s    
              8  1s    
    4.8 Au    1  2pz          2.324918     0.008942
              2  2pz          0.632430     0.141009
              3 -2pz          0.079053     0.945364
              4 -2pz   
              5  2pz   
              6  2pz   
              7 -2pz   
              8 -2pz   
    5.8 Au    1  2py          2.324918     0.008942
              2 -2py          0.632430     0.141009
              3  2py          0.079053     0.945364
              4 -2py   
              5 -2py   
              6  2py   
              7 -2py   
              8  2py   
    6.8 Au    1  2px          2.324918     0.008942
              2 -2px          0.632430     0.141009
              3 -2px          0.079053     0.945364
              4  2px   
              5 -2px   
              6  2px   
              7  2px   
              8 -2px   
    7.8 Au    1  2pz          0.035962     1.000000
              2  2pz   
              3 -2pz   
              4 -2pz   
              5  2pz   
              6  2pz   
              7 -2pz   
              8 -2pz   
    8.8 Au    1  2py          0.035962     1.000000
              2 -2py   
              3  2py   
              4 -2py   
              5 -2py   
              6  2py   
              7 -2py   
              8  2py   
    9.8 Au    1  2px          0.035962     1.000000
              2 -2px   
              3 -2px   
              4  2px   
              5 -2px   
              6  2px   
              7  2px   
              8 -2px   

 NUCLEAR CHARGE:                   24
 NUMBER OF PRIMITIVE AOS:         176
 NUMBER OF SYMMETRY AOS:          176
 NUMBER OF CONTRACTIONS:           72   (    9Ag  +    9B3u +    9B2u +    9B1g +    9B1u +    9B2g +    9B3g +    9Au  )
 NUMBER OF CORE ORBITALS:           8   (    1Ag  +    1B3u +    1B2u +    1B1g +    1B1u +    1B2g +    1B3g +    1Au  )
 NUMBER OF VALENCE ORBITALS:       32   (    4Ag  +    4B3u +    4B2u +    4B1g +    4B1u +    4B2g +    4B3g +    4Au  )


 NUCLEAR REPULSION ENERGY   36.18727945

 Eigenvalues of metric

         1 0.236E-01 0.207E+00 0.293E+00 0.293E+00 0.956E+00 0.241E+01 0.382E+01 0.382E+01
         2 0.451E-02 0.101E+00 0.150E+00 0.186E+00 0.354E+00 0.968E+00 0.153E+01 0.162E+01
         3 0.451E-02 0.101E+00 0.150E+00 0.186E+00 0.354E+00 0.968E+00 0.153E+01 0.162E+01
         4 0.775E-03 0.268E-01 0.539E-01 0.110E+00 0.172E+00 0.338E+00 0.796E+00 0.964E+00
         5 0.451E-02 0.101E+00 0.150E+00 0.186E+00 0.354E+00 0.968E+00 0.153E+01 0.162E+01
         6 0.775E-03 0.268E-01 0.539E-01 0.110E+00 0.172E+00 0.338E+00 0.796E+00 0.964E+00
         7 0.775E-03 0.268E-01 0.539E-01 0.110E+00 0.172E+00 0.338E+00 0.796E+00 0.964E+00
         8 0.161E-03 0.932E-02 0.932E-02 0.480E-01 0.104E+00 0.201E+00 0.201E+00 0.930E+00


 Contracted 2-electron integrals neglected if value below      1.0D-11
 AO integral compression algorithm  1   Integral accuracy      1.0D-11

     8.126 MB (compressed) written to integral file ( 57.9%)


 NUMBER OF SORTED TWO-ELECTRON INTEGRALS:     453942.     BUFFER LENGTH:  32768
 NUMBER OF SEGMENTS:   1  SEGMENT LENGTH:     453942      RECORD LENGTH: 524288

 Memory used in sort:       1.01 MW

 SORT1 READ     1783296. AND WROTE      453942. INTEGRALS IN      2 RECORDS. CPU TIME:     0.03 SEC, REAL TIME:     0.03 SEC
 SORT2 READ      453942. AND WROTE      453942. INTEGRALS IN     31 RECORDS. CPU TIME:     0.05 SEC, REAL TIME:     0.06 SEC

 FILE SIZES:   FILE 1:    38.3 MBYTE,  FILE 4:     8.4 MBYTE,   TOTAL:     46.8 MBYTE

 OPERATOR DM      FOR CENTER  0  COORDINATES:    0.000000    0.000000    0.000000


 **********************************************************************************************************************************
 DATASETS  * FILE   NREC   LENGTH (MB)   RECORD NAMES
              1      19       32.37       500      700      610      900      950      970     1000      129      960     1100   
                                          VAR     GEOM    BASINP   SYMINP    ZMAT    AOBASIS   BASIS     P2S    ABASIS      S 
                                         1400     1410     1200     1210     1080     1600     1650     1300     1700   
                                           T        V       H0       H01     AOSYM     SMH    MOLCAS    ERIS     OPER   

              3       5       14.92       500      610      700     1000     2100   
                                          VAR    BASINP    GEOM     BASIS     RHF  

 PROGRAMS   *        TOTAL       INT   RESTART
 CPU TIMES  *         0.83      0.71      0.02
 REAL TIME  *         0.96 SEC
 DISK USED  *        62.05 MB
 **********************************************************************************************************************************


 PROGRAM * CCSD (Closed-shell coupled cluster)     Authors: C. Hampel, H.-J. Werner, 1991, M. Deegan, P.J. Knowles, 1992


 Input parameters for THRESH:

 ENERGY   =    1.00D-10
 COEFF    =    1.00D-12
 PRINTCI  =    0.000000
 THRPRINT =    0.000000

 Convergence thresholds:  THRVAR = 1.00D-24  THRDEN = 1.00D-10

 Number of closed-shell orbitals:  12 (   2   2   2   1   2   1   1   1 )
 Number of external orbitals:      60 (   7   7   7   8   7   8   8   8 )

 Molecular orbitals read from record     2100.3  Type=RHF/CANONICAL (state 1.1)

 Number of N-1 electron functions:               0
 Number of N-2 electron functions:              78
 Number of singly external CSFs:                 0
 Number of doubly external CSFs:             32764
 Total number of CSFs:                       32765

 Length of J-op  integral file:               0.00 MB
 Length of K-op  integral file:               0.08 MB
 Length of 3-ext integral record:             0.00 MB

 Integral transformation finished. Total CPU:   0.01 sec, npass=  1  Memory used:   0.31 MW

 Reference energy:                    -59.51321462

 MP2 singlet pair energy:              -0.08139028
 MP2 triplet pair energy:              -0.04139687
 MP2 correlation energy:               -0.12278716
 MP2 total energy:                    -59.63600178

 SCS-MP2 correlation energy:           -0.12342639   (PS=  1.200000  PT=  0.333333)
 SCS-MP2 total energy:                -59.63664102

 ITER.      SQ.NORM     CORR.ENERGY   TOTAL ENERGY   ENERGY CHANGE        DEN1      VAR(S)    VAR(P)  DIIS     TIME  TIME/IT
   1      1.26699445    -0.13659904   -59.64981366    -0.01381188    -0.00642968  0.00D+00  0.66D-02  1  1     0.10     0.09
   2      1.30688086    -0.14077190   -59.65398652    -0.00417286    -0.00692189  0.00D+00  0.13D-02  2  2     0.17     0.08
   3      1.33955886    -0.14133092   -59.65454554    -0.00055902    -0.00421295  0.00D+00  0.22D-03  3  3     0.23     0.07
   4      1.35079282    -0.14141771   -59.65463233    -0.00008679    -0.00082198  0.00D+00  0.39D-04  4  4     0.28     0.07
   5      1.35553335    -0.14152858   -59.65474321    -0.00011088    -0.00024065  0.00D+00  0.70D-05  5  5     0.32     0.06
   6      1.35719090    -0.14154194   -59.65475657    -0.00001336    -0.00008782  0.00D+00  0.12D-05  6  6     0.37     0.06
   7      1.35748580    -0.14152911   -59.65474373     0.00001284    -0.00002397  0.00D+00  0.20D-06  6  1     0.41     0.06
   8      1.35756666    -0.14152918   -59.65474381    -0.00000008    -0.00000516  0.00D+00  0.33D-07  6  2     0.46     0.06
   9      1.35758073    -0.14153115   -59.65474577    -0.00000196     0.00000025  0.00D+00  0.54D-08  6  3     0.50     0.06
  10      1.35758738    -0.14153144   -59.65474606    -0.00000029    -0.00000047  0.00D+00  0.94D-09  6  4     0.54     0.06
  11      1.35758810    -0.14153130   -59.65474593     0.00000014    -0.00000031  0.00D+00  0.15D-09  6  5     0.59     0.05
  12      1.35758655    -0.14153127   -59.65474590     0.00000003     0.00000003  0.00D+00  0.28D-10  6  6     0.63     0.05
  13      1.35758456    -0.14153130   -59.65474593    -0.00000003     0.00000015  0.00D+00  0.74D-11  6  1     0.68     0.05
  14      1.35758296    -0.14153133   -59.65474596    -0.00000003     0.00000013  0.00D+00  0.22D-11  6  2     0.72     0.05
  15      1.35758195    -0.14153134   -59.65474597    -0.00000001     0.00000007  0.00D+00  0.68D-12  6  3     0.76     0.05
  16      1.35758141    -0.14153134   -59.65474597    -0.00000000     0.00000003  0.00D+00  0.19D-12  6  4     0.81     0.05
  17      1.35758120    -0.14153134   -59.65474597     0.00000000     0.00000001  0.00D+00  0.50D-13  6  5     0.85     0.05
  18      1.35758113    -0.14153134   -59.65474597     0.00000000     0.00000000  0.00D+00  0.12D-13  6  6     0.89     0.05
  19      1.35758110    -0.14153134   -59.65474597    -0.00000000     0.00000000  0.00D+00  0.26D-14  6  1     0.94     0.05
  20      1.35758109    -0.14153134   -59.65474597    -0.00000000     0.00000000  0.00D+00  0.50D-15  6  2     0.98     0.05
  21      1.35758109    -0.14153134   -59.65474597     0.00000000     0.00000000  0.00D+00  0.11D-15  6  3     1.03     0.05
  22      1.35758109    -0.14153134   -59.65474597     0.00000000    -0.00000000  0.00D+00  0.30D-16  6  4     1.07     0.05
  23      1.35758110    -0.14153134   -59.65474597     0.00000000    -0.00000000  0.00D+00  0.45D-17  6  6     1.12     0.05
  24      1.35758110    -0.14153134   -59.65474597     0.00000000    -0.00000000  0.00D+00  0.36D-18  6  5     1.16     0.05
  25      1.35758110    -0.14153134   -59.65474597     0.00000000    -0.00000000  0.00D+00  0.87D-19  6  1     1.19     0.05
  26      1.35758110    -0.14153134   -59.65474597     0.00000000    -0.00000000  0.00D+00  0.71D-20  6  2     1.23     0.05
  27      1.35758110    -0.14153134   -59.65474597     0.00000000    -0.00000000  0.00D+00  0.15D-20  6  3     1.27     0.05
  28      1.35758110    -0.14153134   -59.65474597     0.00000000    -0.00000000  0.00D+00  0.38D-21  6  4     1.31     0.05
  29      1.35758110    -0.14153134   -59.65474597     0.00000000    -0.00000000  0.00D+00  0.53D-22  6  5     1.35     0.05
  30      1.35758110    -0.14153134   -59.65474597     0.00000000    -0.00000000  0.00D+00  0.46D-23  6  6     1.39     0.05
  31      1.35758110    -0.14153134   -59.65474597    -0.00000000     0.00000000  0.00D+00  0.13D-23  6  1     1.43     0.05
  32      1.35758110    -0.14153134   -59.65474597    -0.00000000     0.00000000  0.00D+00  0.10D-24  6  2     1.47     0.05


 Doubles amplitudes (print threshold =  0.000E+00):

         I         J         SYM. A    SYM. B    A         B      T(IJ, AB)

         1         1         1         1         1         1      0.00002035
         1         1         1         1         1         2      0.00000000
         1         1         1         1         1         3      0.00000000
         1         1         1         1         1         4     -0.00005610
         1         1         1         1         1         5      0.00007138
         1         1         1         1         1         6     -0.00000000
         1         1         1         1         1         7      0.00000000
         1         1         1         1         2         1      0.00000000
         1         1         1         1         2         2      0.00002035
         1         1         1         1         2         3      0.00000000
         1         1         1         1         2         4     -0.00007138
         1         1         1         1         2         5     -0.00005610
         1         1         1         1         2         6     -0.00000000
         1         1         1         1         2         7     -0.00000000
         1         1         1         1         3         1      0.00000000
         1         1         1         1         3         2      0.00000000
         1         1         1         1         3         3      0.00001495
         1         1         1         1         3         4      0.00000000
         1         1         1         1         3         5     -0.00000000
         1         1         1         1         3         6     -0.00007186
         1         1         1         1         3         7      0.00005033
         1         1         1         1         4         1     -0.00005610
         1         1         1         1         4         2     -0.00007138
         1         1         1         1         4         3      0.00000000
         1         1         1         1         4         4     -0.00019806
         1         1         1         1         4         5      0.00000000
         1         1         1         1         4         6     -0.00000000
         1         1         1         1         4         7      0.00000000
         1         1         1         1         5         1      0.00007138
         1         1         1         1         5         2     -0.00005610
         1         1         1         1         5         3     -0.00000000
         1         1         1         1         5         4      0.00000000
         1         1         1         1         5         5     -0.00019806
         1         1         1         1         5         6      0.00000000
         1         1         1         1         5         7     -0.00000000
         1         1         1         1         6         1     -0.00000000
         1         1         1         1         6         2     -0.00000000
         1         1         1         1         6         3     -0.00007186
         1         1         1         1         6         4     -0.00000000
         1         1         1         1         6         5      0.00000000
         1         1         1         1         6         6     -0.00031197
         1         1         1         1         6         7      0.00022933
         1         1         1         1         7         1      0.00000000
         1         1         1         1         7         2     -0.00000000
         1         1         1         1         7         3      0.00005033
         1         1         1         1         7         4      0.00000000
         1         1         1         1         7         5     -0.00000000
         1         1         1         1         7         6      0.00022933
         1         1         1         1         7         7     -0.00026515
         1         1         2         2         1         1     -0.00003011
         1         1         2         2         1         2     -0.00000000
         1         1         2         2         1         3      0.00005827
         1         1         2         2         1         4     -0.00004028
         1         1         2         2         1         5      0.00000000
         1         1         2         2         1         6     -0.00000155
         1         1         2         2         1         7      0.00005226
         1         1         2         2         2         1     -0.00000000
         1         1         2         2         2         2     -0.00001419
         1         1         2         2         2         3     -0.00000000
         1         1         2         2         2         4     -0.00000000
         1         1         2         2         2         5     -0.00008660
         1         1         2         2         2         6     -0.00000000
         1         1         2         2         2         7     -0.00000000
         1         1         2         2         3         1      0.00005827
         1         1         2         2         3         2     -0.00000000
         1         1         2         2         3         3     -0.00014092
         1         1         2         2         3         4     -0.00007996
         1         1         2         2         3         5      0.00000000
         1         1         2         2         3         6      0.00009621
         1         1         2         2         3         7     -0.00018432
         1         1         2         2         4         1     -0.00004028
         1         1         2         2         4         2     -0.00000000
         1         1         2         2         4         3     -0.00007996
         1         1         2         2         4         4     -0.00029760
         1         1         2         2         4         5      0.00000000
         1         1         2         2         4         6      0.00003355
         1         1         2         2         4         7     -0.00012105
         1         1         2         2         5         1      0.00000000
         1         1         2         2         5         2     -0.00008660
         1         1         2         2         5         3      0.00000000
         1         1         2         2         5         4      0.00000000
         1         1         2         2         5         5     -0.00026517
         1         1         2         2         5         6     -0.00000000
         1         1         2         2         5         7      0.00000000
         1         1         2         2         6         1     -0.00000155
         1         1         2         2         6         2     -0.00000000
         1         1         2         2         6         3      0.00009621
         1         1         2         2         6         4      0.00003355
         1         1         2         2         6         5     -0.00000000
         1         1         2         2         6         6     -0.00045857
         1         1         2         2         6         7      0.00022222
         1         1         2         2         7         1      0.00005226
         1         1         2         2         7         2     -0.00000000
         1         1         2         2         7         3     -0.00018432
         1         1         2         2         7         4     -0.00012105
         1         1         2         2         7         5      0.00000000
         1         1         2         2         7         6      0.00022222
         1         1         2         2         7         7     -0.00036826
         1         1         3         3         1         1     -0.00003011
         1         1         3         3         1         2     -0.00000000
         1         1         3         3         1         3      0.00005827
         1         1         3         3         1         4     -0.00004028
         1         1         3         3         1         5     -0.00000000
         1         1         3         3         1         6     -0.00000155
         1         1         3         3         1         7      0.00005226
         1         1         3         3         2         1     -0.00000000
         1         1         3         3         2         2     -0.00001419
         1         1         3         3         2         3     -0.00000000
         1         1         3         3         2         4     -0.00000000
         1         1         3         3         2         5     -0.00008660
         1         1         3         3         2         6     -0.00000000
         1         1         3         3         2         7     -0.00000000
         1         1         3         3         3         1      0.00005827
         1         1         3         3         3         2     -0.00000000
         1         1         3         3         3         3     -0.00014092
         1         1         3         3         3         4     -0.00007996
         1         1         3         3         3         5      0.00000000
         1         1         3         3         3         6      0.00009621
         1         1         3         3         3         7     -0.00018432
         1         1         3         3         4         1     -0.00004028
         1         1         3         3         4         2     -0.00000000
         1         1         3         3         4         3     -0.00007996
         1         1         3         3         4         4     -0.00029760
         1         1         3         3         4         5      0.00000000
         1         1         3         3         4         6      0.00003355
         1         1         3         3         4         7     -0.00012105
         1         1         3         3         5         1     -0.00000000
         1         1         3         3         5         2     -0.00008660
         1         1         3         3         5         3      0.00000000
         1         1         3         3         5         4      0.00000000
         1         1         3         3         5         5     -0.00026517
         1         1         3         3         5         6     -0.00000000
         1         1         3         3         5         7      0.00000000
         1         1         3         3         6         1     -0.00000155
         1         1         3         3         6         2     -0.00000000
         1         1         3         3         6         3      0.00009621
         1         1         3         3         6         4      0.00003355
         1         1         3         3         6         5     -0.00000000
         1         1         3         3         6         6     -0.00045857
         1         1         3         3         6         7      0.00022222
         1         1         3         3         7         1      0.00005226
         1         1         3         3         7         2     -0.00000000
         1         1         3         3         7         3     -0.00018432
         1         1         3         3         7         4     -0.00012105
         1         1         3         3         7         5      0.00000000
         1         1         3         3         7         6      0.00022222
         1         1         3         3         7         7     -0.00036826
         1         1         4         4         1         1     -0.00012267
         1         1         4         4         1         2      0.00010300
         1         1         4         4         1         3      0.00000000
         1         1         4         4         1         4     -0.00022158
         1         1         4         4         1         5     -0.00001537
         1         1         4         4         1         6      0.00000000
         1         1         4         4         1         7      0.00009064
         1         1         4         4         1         8     -0.00022186
         1         1         4         4         2         1      0.00010300
         1         1         4         4         2         2     -0.00008304
         1         1         4         4         2         3     -0.00000000
         1         1         4         4         2         4      0.00015265
         1         1         4         4         2         5     -0.00005107
         1         1         4         4         2         6      0.00000000
         1         1         4         4         2         7     -0.00005168
         1         1         4         4         2         8      0.00015133
         1         1         4         4         3         1      0.00000000
         1         1         4         4         3         2     -0.00000000
         1         1         4         4         3         3      0.00000562
         1         1         4         4         3         4     -0.00000000
         1         1         4         4         3         5      0.00000000
         1         1         4         4         3         6     -0.00003142
         1         1         4         4         3         7     -0.00000000
         1         1         4         4         3         8      0.00000000
         1         1         4         4         4         1     -0.00022158
         1         1         4         4         4         2      0.00015265
         1         1         4         4         4         3     -0.00000000
         1         1         4         4         4         4     -0.00031503
         1         1         4         4         4         5     -0.00005537
         1         1         4         4         4         6      0.00000000
         1         1         4         4         4         7      0.00014754
         1         1         4         4         4         8     -0.00033150
         1         1         4         4         5         1     -0.00001537
         1         1         4         4         5         2     -0.00005107
         1         1         4         4         5         3      0.00000000
         1         1         4         4         5         4     -0.00005537
         1         1         4         4         5         5     -0.00034740
         1         1         4         4         5         6     -0.00000000
         1         1         4         4         5         7      0.00002301
         1         1         4         4         5         8     -0.00005509
         1         1         4         4         6         1      0.00000000
         1         1         4         4         6         2      0.00000000
         1         1         4         4         6         3     -0.00003142
         1         1         4         4         6         4      0.00000000
         1         1         4         4         6         5     -0.00000000
         1         1         4         4         6         6     -0.00046300
         1         1         4         4         6         7      0.00000000
         1         1         4         4         6         8     -0.00000000
         1         1         4         4         7         1      0.00009064
         1         1         4         4         7         2     -0.00005168
         1         1         4         4         7         3     -0.00000000
         1         1         4         4         7         4      0.00014754
         1         1         4         4         7         5      0.00002301
         1         1         4         4         7         6      0.00000000
         1         1         4         4         7         7     -0.00067878
         1         1         4         4         7         8      0.00043980
         1         1         4         4         8         1     -0.00022186
         1         1         4         4         8         2      0.00015133
         1         1         4         4         8         3      0.00000000
         1         1         4         4         8         4     -0.00033150
         1         1         4         4         8         5     -0.00005509
         1         1         4         4         8         6     -0.00000000
         1         1         4         4         8         7      0.00043980
         1         1         4         4         8         8     -0.00065329
         1         1         5         5         1         1     -0.00003011
         1         1         5         5         1         2     -0.00000000
         1         1         5         5         1         3      0.00005827
         1         1         5         5         1         4     -0.00004028
         1         1         5         5         1         5      0.00000000
         1         1         5         5         1         6     -0.00000155
         1         1         5         5         1         7      0.00005226
         1         1         5         5         2         1     -0.00000000
         1         1         5         5         2         2     -0.00001419
         1         1         5         5         2         3     -0.00000000
         1         1         5         5         2         4     -0.00000000
         1         1         5         5         2         5     -0.00008660
         1         1         5         5         2         6     -0.00000000
         1         1         5         5         2         7     -0.00000000
         1         1         5         5         3         1      0.00005827
         1         1         5         5         3         2     -0.00000000
         1         1         5         5         3         3     -0.00014092
         1         1         5         5         3         4     -0.00007996
         1         1         5         5         3         5      0.00000000
         1         1         5         5         3         6      0.00009621
         1         1         5         5         3         7     -0.00018432
         1         1         5         5         4         1     -0.00004028
         1         1         5         5         4         2     -0.00000000
         1         1         5         5         4         3     -0.00007996
         1         1         5         5         4         4     -0.00029760
         1         1         5         5         4         5     -0.00000000
         1         1         5         5         4         6      0.00003355
         1         1         5         5         4         7     -0.00012105
         1         1         5         5         5         1      0.00000000
         1         1         5         5         5         2     -0.00008660
         1         1         5         5         5         3      0.00000000
         1         1         5         5         5         4     -0.00000000
         1         1         5         5         5         5     -0.00026517
         1         1         5         5         5         6     -0.00000000
         1         1         5         5         5         7      0.00000000
         1         1         5         5         6         1     -0.00000155
         1         1         5         5         6         2     -0.00000000
         1         1         5         5         6         3      0.00009621
         1         1         5         5         6         4      0.00003355
         1         1         5         5         6         5     -0.00000000
         1         1         5         5         6         6     -0.00045857
         1         1         5         5         6         7      0.00022222
         1         1         5         5         7         1      0.00005226
         1         1         5         5         7         2     -0.00000000
         1         1         5         5         7         3     -0.00018432
         1         1         5         5         7         4     -0.00012105
         1         1         5         5         7         5      0.00000000
         1         1         5         5         7         6      0.00022222
         1         1         5         5         7         7     -0.00036826
         1         1         6         6         1         1     -0.00012267
         1         1         6         6         1         2      0.00010300
         1         1         6         6         1         3     -0.00000000
         1         1         6         6         1         4     -0.00022158
         1         1         6         6         1         5     -0.00001537
         1         1         6         6         1         6     -0.00000000
         1         1         6         6         1         7      0.00009064
         1         1         6         6         1         8     -0.00022186
         1         1         6         6         2         1      0.00010300
         1         1         6         6         2         2     -0.00008304
         1         1         6         6         2         3     -0.00000000
         1         1         6         6         2         4      0.00015265
         1         1         6         6         2         5     -0.00005107
         1         1         6         6         2         6      0.00000000
         1         1         6         6         2         7     -0.00005168
         1         1         6         6         2         8      0.00015133
         1         1         6         6         3         1     -0.00000000
         1         1         6         6         3         2     -0.00000000
         1         1         6         6         3         3      0.00000562
         1         1         6         6         3         4     -0.00000000
         1         1         6         6         3         5      0.00000000
         1         1         6         6         3         6     -0.00003142
         1         1         6         6         3         7      0.00000000
         1         1         6         6         3         8      0.00000000
         1         1         6         6         4         1     -0.00022158
         1         1         6         6         4         2      0.00015265
         1         1         6         6         4         3     -0.00000000
         1         1         6         6         4         4     -0.00031503
         1         1         6         6         4         5     -0.00005537
         1         1         6         6         4         6      0.00000000
         1         1         6         6         4         7      0.00014754
         1         1         6         6         4         8     -0.00033150
         1         1         6         6         5         1     -0.00001537
         1         1         6         6         5         2     -0.00005107
         1         1         6         6         5         3      0.00000000
         1         1         6         6         5         4     -0.00005537
         1         1         6         6         5         5     -0.00034740
         1         1         6         6         5         6     -0.00000000
         1         1         6         6         5         7      0.00002301
         1         1         6         6         5         8     -0.00005509
         1         1         6         6         6         1     -0.00000000
         1         1         6         6         6         2      0.00000000
         1         1         6         6         6         3     -0.00003142
         1         1         6         6         6         4      0.00000000
         1         1         6         6         6         5     -0.00000000
         1         1         6         6         6         6     -0.00046300
         1         1         6         6         6         7      0.00000000
         1         1         6         6         6         8      0.00000000
         1         1         6         6         7         1      0.00009064
         1         1         6         6         7         2     -0.00005168
         1         1         6         6         7         3      0.00000000
         1         1         6         6         7         4      0.00014754
         1         1         6         6         7         5      0.00002301
         1         1         6         6         7         6      0.00000000
         1         1         6         6         7         7     -0.00067878
         1         1         6         6         7         8      0.00043980
         1         1         6         6         8         1     -0.00022186
         1         1         6         6         8         2      0.00015133
         1         1         6         6         8         3      0.00000000
         1         1         6         6         8         4     -0.00033150
         1         1         6         6         8         5     -0.00005509
         1         1         6         6         8         6      0.00000000
         1         1         6         6         8         7      0.00043980
         1         1         6         6         8         8     -0.00065329
         1         1         7         7         1         1     -0.00012267
         1         1         7         7         1         2      0.00010300
         1         1         7         7         1         3      0.00000000
         1         1         7         7         1         4     -0.00022158
         1         1         7         7         1         5     -0.00001537
         1         1         7         7         1         6      0.00000000
         1         1         7         7         1         7      0.00009064
         1         1         7         7         1         8     -0.00022186
         1         1         7         7         2         1      0.00010300
         1         1         7         7         2         2     -0.00008304
         1         1         7         7         2         3     -0.00000000
         1         1         7         7         2         4      0.00015265
         1         1         7         7         2         5     -0.00005107
         1         1         7         7         2         6     -0.00000000
         1         1         7         7         2         7     -0.00005168
         1         1         7         7         2         8      0.00015133
         1         1         7         7         3         1      0.00000000
         1         1         7         7         3         2     -0.00000000
         1         1         7         7         3         3      0.00000562
         1         1         7         7         3         4     -0.00000000
         1         1         7         7         3         5      0.00000000
         1         1         7         7         3         6     -0.00003142
         1         1         7         7         3         7     -0.00000000
         1         1         7         7         3         8      0.00000000
         1         1         7         7         4         1     -0.00022158
         1         1         7         7         4         2      0.00015265
         1         1         7         7         4         3     -0.00000000
         1         1         7         7         4         4     -0.00031503
         1         1         7         7         4         5     -0.00005537
         1         1         7         7         4         6     -0.00000000
         1         1         7         7         4         7      0.00014754
         1         1         7         7         4         8     -0.00033150
         1         1         7         7         5         1     -0.00001537
         1         1         7         7         5         2     -0.00005107
         1         1         7         7         5         3      0.00000000
         1         1         7         7         5         4     -0.00005537
         1         1         7         7         5         5     -0.00034740
         1         1         7         7         5         6     -0.00000000
         1         1         7         7         5         7      0.00002301
         1         1         7         7         5         8     -0.00005509
         1         1         7         7         6         1      0.00000000
         1         1         7         7         6         2     -0.00000000
         1         1         7         7         6         3     -0.00003142
         1         1         7         7         6         4     -0.00000000
         1         1         7         7         6         5     -0.00000000
         1         1         7         7         6         6     -0.00046300
         1         1         7         7         6         7     -0.00000000
         1         1         7         7         6         8     -0.00000000
         1         1         7         7         7         1      0.00009064
         1         1         7         7         7         2     -0.00005168
         1         1         7         7         7         3     -0.00000000
         1         1         7         7         7         4      0.00014754
         1         1         7         7         7         5      0.00002301
         1         1         7         7         7         6     -0.00000000
         1         1         7         7         7         7     -0.00067878
         1         1         7         7         7         8      0.00043980
         1         1         7         7         8         1     -0.00022186
         1         1         7         7         8         2      0.00015133
         1         1         7         7         8         3      0.00000000
         1         1         7         7         8         4     -0.00033150
         1         1         7         7         8         5     -0.00005509
         1         1         7         7         8         6     -0.00000000
         1         1         7         7         8         7      0.00043980
         1         1         7         7         8         8     -0.00065329
         1         1         8         8         1         1     -0.00004949
         1         1         8         8         1         2      0.00000000
         1         1         8         8         1         3     -0.00000000
         1         1         8         8         1         4     -0.00017124
         1         1         8         8         1         5     -0.00000000
         1         1         8         8         1         6     -0.00000000
         1         1         8         8         1         7     -0.00004602
         1         1         8         8         1         8     -0.00012498
         1         1         8         8         2         1      0.00000000
         1         1         8         8         2         2      0.00000398
         1         1         8         8         2         3     -0.00000000
         1         1         8         8         2         4      0.00000000
         1         1         8         8         2         5      0.00002384
         1         1         8         8         2         6      0.00000581
         1         1         8         8         2         7      0.00000000
         1         1         8         8         2         8      0.00000000
         1         1         8         8         3         1     -0.00000000
         1         1         8         8         3         2     -0.00000000
         1         1         8         8         3         3      0.00000398
         1         1         8         8         3         4     -0.00000000
         1         1         8         8         3         5      0.00000581
         1         1         8         8         3         6     -0.00002384
         1         1         8         8         3         7     -0.00000000
         1         1         8         8         3         8     -0.00000000
         1         1         8         8         4         1     -0.00017124
         1         1         8         8         4         2      0.00000000
         1         1         8         8         4         3     -0.00000000
         1         1         8         8         4         4     -0.00053435
         1         1         8         8         4         5      0.00000000
         1         1         8         8         4         6      0.00000000
         1         1         8         8         4         7     -0.00020843
         1         1         8         8         4         8     -0.00045779
         1         1         8         8         5         1     -0.00000000
         1         1         8         8         5         2      0.00002384
         1         1         8         8         5         3      0.00000581
         1         1         8         8         5         4      0.00000000
         1         1         8         8         5         5     -0.00056904
         1         1         8         8         5         6      0.00000000
         1         1         8         8         5         7      0.00000000
         1         1         8         8         5         8      0.00000000
         1         1         8         8         6         1     -0.00000000
         1         1         8         8         6         2      0.00000581
         1         1         8         8         6         3     -0.00002384
         1         1         8         8         6         4      0.00000000
         1         1         8         8         6         5      0.00000000
         1         1         8         8         6         6     -0.00056904
         1         1         8         8         6         7      0.00000000
         1         1         8         8         6         8      0.00000000
         1         1         8         8         7         1     -0.00004602
         1         1         8         8         7         2      0.00000000
         1         1         8         8         7         3     -0.00000000
         1         1         8         8         7         4     -0.00020843
         1         1         8         8         7         5      0.00000000
         1         1         8         8         7         6      0.00000000
         1         1         8         8         7         7     -0.00102481
         1         1         8         8         7         8     -0.00064536
         1         1         8         8         8         1     -0.00012498
         1         1         8         8         8         2      0.00000000
         1         1         8         8         8         3     -0.00000000
         1         1         8         8         8         4     -0.00045779
         1         1         8         8         8         5      0.00000000
         1         1         8         8         8         6      0.00000000
         1         1         8         8         8         7     -0.00064536
         1         1         8         8         8         8     -0.00085816
         2         1         1         1         1         1     -0.00036331
         2         1         1         1         1         2     -0.00000000
         2         1         1         1         1         3     -0.00000000
         2         1         1         1         1         4     -0.00034573
         2         1         1         1         1         5      0.00043988
         2         1         1         1         1         6      0.00000000
         2         1         1         1         1         7     -0.00000000
         2         1         1         1         2         1     -0.00000000
         2         1         1         1         2         2     -0.00036331
         2         1         1         1         2         3     -0.00000000
         2         1         1         1         2         4     -0.00043988
         2         1         1         1         2         5     -0.00034573
         2         1         1         1         2         6      0.00000000
         2         1         1         1         2         7      0.00000000
         2         1         1         1         3         1     -0.00000000
         2         1         1         1         3         2     -0.00000000
         2         1         1         1         3         3     -0.00041018
         2         1         1         1         3         4     -0.00000000
         2         1         1         1         3         5      0.00000000
         2         1         1         1         3         6     -0.00064828
         2         1         1         1         3         7      0.00026291
         2         1         1         1         4         1     -0.00018500
         2         1         1         1         4         2     -0.00023538
         2         1         1         1         4         3     -0.00000000
         2         1         1         1         4         4     -0.00046817
         2         1         1         1         4         5     -0.00000000
         2         1         1         1         4         6      0.00000000
         2         1         1         1         4         7     -0.00000000
         2         1         1         1         5         1      0.00023538
         2         1         1         1         5         2     -0.00018500
         2         1         1         1         5         3      0.00000000
         2         1         1         1         5         4     -0.00000000
         2         1         1         1         5         5     -0.00046817
         2         1         1         1         5         6     -0.00000000
         2         1         1         1         5         7      0.00000000
         2         1         1         1         6         1      0.00000000
         2         1         1         1         6         2      0.00000000
         2         1         1         1         6         3     -0.00021769
         2         1         1         1         6         4      0.00000000
         2         1         1         1         6         5     -0.00000000
         2         1         1         1         6         6     -0.00034130
         2         1         1         1         6         7      0.00014320
         2         1         1         1         7         1     -0.00000000
         2         1         1         1         7         2      0.00000000
         2         1         1         1         7         3      0.00000490
         2         1         1         1         7         4     -0.00000000
         2         1         1         1         7         5      0.00000000
         2         1         1         1         7         6     -0.00000028
         2         1         1         1         7         7      0.00003278
         2         1         2         2         1         1     -0.00021793
         2         1         2         2         1         2      0.00000000
         2         1         2         2         1         3     -0.00002956
         2         1         2         2         1         4     -0.00046891
         2         1         2         2         1         5     -0.00000000
         2         1         2         2         1         6      0.00018869
         2         1         2         2         1         7     -0.00008444
         2         1         2         2         2         1      0.00000000
         2         1         2         2         2         2     -0.00020711
         2         1         2         2         2         3      0.00000000
         2         1         2         2         2         4      0.00000000
         2         1         2         2         2         5     -0.00042709
         2         1         2         2         2         6      0.00000000
         2         1         2         2         2         7      0.00000000
         2         1         2         2         3         1      0.00001139
         2         1         2         2         3         2      0.00000000
         2         1         2         2         3         3      0.00006346
         2         1         2         2         3         4      0.00013661
         2         1         2         2         3         5     -0.00000000
         2         1         2         2         3         6     -0.00000889
         2         1         2         2         3         7      0.00004906
         2         1         2         2         4         1     -0.00021653
         2         1         2         2         4         2      0.00000000
         2         1         2         2         4         3      0.00002227
         2         1         2         2         4         4     -0.00052976
         2         1         2         2         4         5     -0.00000000
         2         1         2         2         4         6     -0.00004426
         2         1         2         2         4         7     -0.00001652
         2         1         2         2         5         1     -0.00000000
         2         1         2         2         5         2     -0.00025255
         2         1         2         2         5         3     -0.00000000
         2         1         2         2         5         4     -0.00000000
         2         1         2         2         5         5     -0.00056205
         2         1         2         2         5         6      0.00000000
         2         1         2         2         5         7     -0.00000000
         2         1         2         2         6         1      0.00001728
         2         1         2         2         6         2      0.00000000
         2         1         2         2         6         3     -0.00005385
         2         1         2         2         6         4     -0.00020155
         2         1         2         2         6         5      0.00000000
         2         1         2         2         6         6     -0.00038601
         2         1         2         2         6         7      0.00004718
         2         1         2         2         7         1     -0.00004374
         2         1         2         2         7         2      0.00000000
         2         1         2         2         7         3      0.00008878
         2         1         2         2         7         4      0.00001309
         2         1         2         2         7         5     -0.00000000
         2         1         2         2         7         6     -0.00002941
         2         1         2         2         7         7      0.00008569
         2         1         3         3         1         1     -0.00021793
         2         1         3         3         1         2      0.00000000
         2         1         3         3         1         3     -0.00002956
         2         1         3         3         1         4     -0.00046891
         2         1         3         3         1         5     -0.00000000
         2         1         3         3         1         6      0.00018869
         2         1         3         3         1         7     -0.00008444
         2         1         3         3         2         1      0.00000000
         2         1         3         3         2         2     -0.00020711
         2         1         3         3         2         3      0.00000000
         2         1         3         3         2         4      0.00000000
         2         1         3         3         2         5     -0.00042709
         2         1         3         3         2         6     -0.00000000
         2         1         3         3         2         7      0.00000000
         2         1         3         3         3         1      0.00001139
         2         1         3         3         3         2      0.00000000
         2         1         3         3         3         3      0.00006346
         2         1         3         3         3         4      0.00013661
         2         1         3         3         3         5     -0.00000000
         2         1         3         3         3         6     -0.00000889
[...]
        12         2         5         4         1         3      0.00000000
        12         2         5         4         1         4     -0.00007844
        12         2         5         4         1         5     -0.00000793
        12         2         5         4         1         6     -0.00000000
        12         2         5         4         1         7     -0.00007649
        12         2         5         4         1         8     -0.00002239
        12         2         5         4         2         1     -0.00000000
        12         2         5         4         2         2      0.00000000
        12         2         5         4         2         3      0.00005358
        12         2         5         4         2         4     -0.00000000
        12         2         5         4         2         5      0.00000000
        12         2         5         4         2         6      0.00015864
        12         2         5         4         2         7      0.00000000
        12         2         5         4         2         8     -0.00000000
        12         2         5         4         3         1      0.00008676
        12         2         5         4         3         2     -0.00006400
        12         2         5         4         3         3      0.00000000
        12         2         5         4         3         4      0.00011705
        12         2         5         4         3         5     -0.00001985
        12         2         5         4         3         6      0.00000000
        12         2         5         4         3         7     -0.00012946
        12         2         5         4         3         8      0.00011491
        12         2         5         4         4         1     -0.00010648
        12         2         5         4         4         2     -0.00006680
        12         2         5         4         4         3     -0.00000000
        12         2         5         4         4         4     -0.00000621
        12         2         5         4         4         5     -0.00026007
        12         2         5         4         4         6     -0.00000000
        12         2         5         4         4         7     -0.00040395
        12         2         5         4         4         8      0.00010485
        12         2         5         4         5         1     -0.00000000
        12         2         5         4         5         2      0.00000000
        12         2         5         4         5         3      0.00012758
        12         2         5         4         5         4     -0.00000000
        12         2         5         4         5         5      0.00000000
        12         2         5         4         5         6      0.00040854
        12         2         5         4         5         7     -0.00000000
        12         2         5         4         5         8     -0.00000000
        12         2         5         4         6         1      0.00019659
        12         2         5         4         6         2     -0.00034223
        12         2         5         4         6         3     -0.00000000
        12         2         5         4         6         4      0.00004619
        12         2         5         4         6         5     -0.00050267
        12         2         5         4         6         6      0.00000000
        12         2         5         4         6         7      0.00013753
        12         2         5         4         6         8     -0.00012484
        12         2         5         4         7         1     -0.00003216
        12         2         5         4         7         2      0.00005464
        12         2         5         4         7         3      0.00000000
        12         2         5         4         7         4      0.00002425
        12         2         5         4         7         5      0.00010417
        12         2         5         4         7         6     -0.00000000
        12         2         5         4         7         7     -0.00007947
        12         2         5         4         7         8      0.00013923
        12         2         6         3         1         1     -0.00017454
        12         2         6         3         1         2     -0.00000000
        12         2         6         3         1         3      0.00010998
        12         2         6         3         1         4     -0.00009779
        12         2         6         3         1         5      0.00000000
        12         2         6         3         1         6     -0.00003699
        12         2         6         3         1         7      0.00006774
        12         2         6         3         2         1      0.00010560
        12         2         6         3         2         2     -0.00000000
        12         2         6         3         2         3     -0.00005186
        12         2         6         3         2         4      0.00001048
        12         2         6         3         2         5      0.00000000
        12         2         6         3         2         6     -0.00007878
        12         2         6         3         2         7     -0.00004104
        12         2         6         3         3         1      0.00000000
        12         2         6         3         3         2      0.00005934
        12         2         6         3         3         3      0.00000000
        12         2         6         3         3         4     -0.00000000
        12         2         6         3         3         5      0.00007304
        12         2         6         3         3         6      0.00000000
        12         2         6         3         3         7      0.00000000
        12         2         6         3         4         1     -0.00018448
        12         2         6         3         4         2      0.00000000
        12         2         6         3         4         3      0.00013719
        12         2         6         3         4         4     -0.00011696
        12         2         6         3         4         5     -0.00000000
        12         2         6         3         4         6     -0.00009041
        12         2         6         3         4         7      0.00009796
        12         2         6         3         5         1     -0.00008712
        12         2         6         3         5         2      0.00000000
        12         2         6         3         5         3      0.00007608
        12         2         6         3         5         4     -0.00028536
        12         2         6         3         5         5      0.00000000
        12         2         6         3         5         6     -0.00042584
        12         2         6         3         5         7      0.00003631
        12         2         6         3         6         1      0.00000000
        12         2         6         3         6         2      0.00048184
        12         2         6         3         6         3     -0.00000000
        12         2         6         3         6         4      0.00000000
        12         2         6         3         6         5      0.00064524
        12         2         6         3         6         6     -0.00000000
        12         2         6         3         6         7     -0.00000000
        12         2         6         3         7         1     -0.00050993
        12         2         6         3         7         2      0.00000000
        12         2         6         3         7         3     -0.00002463
        12         2         6         3         7         4     -0.00055461
        12         2         6         3         7         5     -0.00000000
        12         2         6         3         7         6      0.00014612
        12         2         6         3         7         7     -0.00012809
        12         2         6         3         8         1      0.00012743
        12         2         6         3         8         2     -0.00000000
        12         2         6         3         8         3      0.00004255
        12         2         6         3         8         4      0.00018377
        12         2         6         3         8         5     -0.00000000
        12         2         6         3         8         6     -0.00005257
        12         2         6         3         8         7      0.00014419
        12         2         7         2         1         1     -0.00017454
        12         2         7         2         1         2     -0.00000000
        12         2         7         2         1         3      0.00010998
        12         2         7         2         1         4     -0.00009779
        12         2         7         2         1         5      0.00000000
        12         2         7         2         1         6     -0.00003699
        12         2         7         2         1         7      0.00006774
        12         2         7         2         2         1      0.00010560
        12         2         7         2         2         2     -0.00000000
        12         2         7         2         2         3     -0.00005186
        12         2         7         2         2         4      0.00001048
        12         2         7         2         2         5      0.00000000
        12         2         7         2         2         6     -0.00007878
        12         2         7         2         2         7     -0.00004104
        12         2         7         2         3         1      0.00000000
        12         2         7         2         3         2      0.00005934
        12         2         7         2         3         3      0.00000000
        12         2         7         2         3         4     -0.00000000
        12         2         7         2         3         5      0.00007304
        12         2         7         2         3         6      0.00000000
        12         2         7         2         3         7      0.00000000
        12         2         7         2         4         1     -0.00018448
        12         2         7         2         4         2     -0.00000000
        12         2         7         2         4         3      0.00013719
        12         2         7         2         4         4     -0.00011696
        12         2         7         2         4         5     -0.00000000
        12         2         7         2         4         6     -0.00009041
        12         2         7         2         4         7      0.00009796
        12         2         7         2         5         1     -0.00008712
        12         2         7         2         5         2      0.00000000
        12         2         7         2         5         3      0.00007608
        12         2         7         2         5         4     -0.00028536
        12         2         7         2         5         5      0.00000000
        12         2         7         2         5         6     -0.00042584
        12         2         7         2         5         7      0.00003631
        12         2         7         2         6         1      0.00000000
        12         2         7         2         6         2      0.00048184
        12         2         7         2         6         3     -0.00000000
        12         2         7         2         6         4      0.00000000
        12         2         7         2         6         5      0.00064524
        12         2         7         2         6         6     -0.00000000
        12         2         7         2         6         7     -0.00000000
        12         2         7         2         7         1     -0.00050993
        12         2         7         2         7         2      0.00000000
        12         2         7         2         7         3     -0.00002463
        12         2         7         2         7         4     -0.00055461
        12         2         7         2         7         5     -0.00000000
        12         2         7         2         7         6      0.00014612
        12         2         7         2         7         7     -0.00012809
        12         2         7         2         8         1      0.00012743
        12         2         7         2         8         2     -0.00000000
        12         2         7         2         8         3      0.00004255
        12         2         7         2         8         4      0.00018377
        12         2         7         2         8         5     -0.00000000
        12         2         7         2         8         6     -0.00005257
        12         2         7         2         8         7      0.00014419
        12         2         8         1         1         1      0.00000000
        12         2         8         1         1         2      0.00000000
        12         2         8         1         1         3     -0.00017973
        12         2         8         1         1         4     -0.00000000
        12         2         8         1         1         5      0.00000000
        12         2         8         1         1         6     -0.00006972
        12         2         8         1         1         7     -0.00000784
        12         2         8         1         2         1     -0.00005510
        12         2         8         1         2         2     -0.00004839
        12         2         8         1         2         3      0.00000000
        12         2         8         1         2         4     -0.00005263
        12         2         8         1         2         5      0.00000979
        12         2         8         1         2         6      0.00000000
        12         2         8         1         2         7     -0.00000000
        12         2         8         1         3         1      0.00004839
        12         2         8         1         3         2     -0.00005510
        12         2         8         1         3         3     -0.00000000
        12         2         8         1         3         4     -0.00000979
        12         2         8         1         3         5     -0.00005263
        12         2         8         1         3         6     -0.00000000
        12         2         8         1         3         7      0.00000000
        12         2         8         1         4         1     -0.00000000
        12         2         8         1         4         2     -0.00000000
        12         2         8         1         4         3     -0.00039211
        12         2         8         1         4         4     -0.00000000
        12         2         8         1         4         5      0.00000000
        12         2         8         1         4         6     -0.00014727
        12         2         8         1         4         7     -0.00004833
        12         2         8         1         5         1      0.00046424
        12         2         8         1         5         2      0.00066279
        12         2         8         1         5         3      0.00000000
        12         2         8         1         5         4      0.00067194
        12         2         8         1         5         5      0.00003707
        12         2         8         1         5         6     -0.00000000
        12         2         8         1         5         7      0.00000000
        12         2         8         1         6         1      0.00066279
        12         2         8         1         6         2     -0.00046424
        12         2         8         1         6         3      0.00000000
        12         2         8         1         6         4      0.00003707
        12         2         8         1         6         5     -0.00067194
        12         2         8         1         6         6     -0.00000000
        12         2         8         1         6         7      0.00000000
        12         2         8         1         7         1     -0.00000000
        12         2         8         1         7         2     -0.00000000
        12         2         8         1         7         3      0.00088367
        12         2         8         1         7         4     -0.00000000
        12         2         8         1         7         5      0.00000000
        12         2         8         1         7         6      0.00061738
        12         2         8         1         7         7     -0.00011863
        12         2         8         1         8         1     -0.00000000
        12         2         8         1         8         2     -0.00000000
        12         2         8         1         8         3      0.00022025
        12         2         8         1         8         4     -0.00000000
        12         2         8         1         8         5      0.00000000
        12         2         8         1         8         6      0.00019322
        12         2         8         1         8         7     -0.00012719


 RESULTS
 =======

  Reference energy                    -59.513214624826

  Correlated core orbitals:             1.1       1.2       1.3       1.4       1.5       1.6       1.7       1.8
  Orbital energies:                    -2.4461   -2.4460   -2.4460   -2.4459   -2.4460   -2.4459   -2.4459   -2.4458

  CCD core-core energy                 -0.004506359344
  CCD core-valence energy              -0.002783108557
  CCD valence correlation energy       -0.134241876363

  CCD singlet pair energy              -0.105544338380
  CCD triplet pair energy              -0.035987005884
  CCD correlation energy               -0.141531344263

 !CCD total energy                    -59.654745969089

 Timing summary (sec):

 STEP                 CPU(USER)    SYS     CPU(TOT)    WALL
 Transformation          0.01      0.01      0.02      0.03
 CCSD iterations         1.55      0.11      1.66      1.65

 Program statistics:

 Available memory in ccsd:                39998624
 Min. memory needed in ccsd:                100409
 Max. memory used in ccsd:                  130193
 Max. memory used in cckext:                139769 (32 integral passes)



 **********************************************************************************************************************************
 DATASETS  * FILE   NREC   LENGTH (MB)   RECORD NAMES
              1      20       34.42       500      700      610      900      950      970     1000      129      960     1100   
                                          VAR     GEOM    BASINP   SYMINP    ZMAT    AOBASIS   BASIS     P2S    ABASIS      S 
                                         1400     1410     1200     1210     1080     1600     1650     1300     1700     1380   
                                           T        V       H0       H01     AOSYM     SMH    MOLCAS    ERIS     OPER     JKOP   

              3       5       14.92       500      610      700     1000     2100   
                                          VAR    BASINP    GEOM     BASIS     RHF  

 PROGRAMS   *        TOTAL      CCSD       INT   RESTART
 CPU TIMES  *         2.46      1.63      0.71      0.02
 REAL TIME  *         2.72 SEC
 DISK USED  *        62.05 MB
 **********************************************************************************************************************************
 Molecular orbitals read from record     2100.3  Type=RHF/CANONICAL (state 1.1)
 Occupation numbers read from record     2100.3  Type=RHF/RHF (state 1.1)
 Orbital energies read from record       2100.3  Type=RHF/CANONICAL (state 1.1)
 Redundancy group numbers read from rec  2100.3  Type=RHF/RHF (state 1.1)

 CCSD/6-31G energy=    -59.654745969089

            CCSD
    -59.65474597
 **********************************************************************************************************************************
 Molpro calculation terminated
