
 Primary working directories    : /scr/yuriaoto/job.023516/molpro.7DkWAEzeMi
 Secondary working directories  : /scr/yuriaoto/job.023516/molpro.7DkWAEzeMi
 Wavefunction directory         : /scr/yuriaoto/job.023516/
 Main file repository           : /scr/yuriaoto/job.023516/molpro.7DkWAEzeMi/

 id        : yuriaoto

 Nodes             nprocs
 t-rex.ufabc.int.br    1

 Using customized tuning parameters: mindgm=8; mindgv=16; mindgc=1; mindgr=1; noblas=0; minvec=7
 default implementation of scratch files=df  


 Variables initialized (933), CPU time= 0.01 sec
 ***,
 memory,40,m
 gprint,orbital,basis,civector
 gthresh,thrprint=0,printci=0.0
 file,3,wfu.dat,old
 
 {ccsd,CC_NORM_MAX=10000.0
 thresh,printci=0.0,ENERGY=1.0E-10,COEFF=1.0E-12
 print,ref=1
 core,0
 wf,24,1,0;
 }
 
 Commands  initialized (760), CPU time= 0.01 sec, 617 directives.
 Default parameters read. Elapsed time= 0.04 sec

 Checking input...
 Passed
1


                                         ***  PROGRAM SYSTEM MOLPRO  ***
                                       Copyright, TTI GmbH Stuttgart, 2015
                                    Version 2019.2 linked Abr  7 2019 15:10:35


 **********************************************************************************************************************************
 LABEL *                                                                                 
  64 bit serial version                                                                  DATE: 02-Jun-20          TIME: 01:04:33  
 **********************************************************************************************************************************

 SHA1:             3a8a58c585c929645742fb5a1b7541a4ad1da699
 **********************************************************************************************************************************


 THRESHOLDS:

 ZERO    =  1.00D-12  ONEINT  =  1.00D-12  TWOINT  =  1.00D-11  PREFAC  =  1.00D-14  XXXXXX  =  1.00D-09  EORDER  =  1.00D-04
 ENERGY  =  0.00D+00  ETEST   =  0.00D+00  EDENS   =  0.00D+00  THRDEDEF=  1.00D-06  GRADIENT=  1.00D-02  STEP    =  1.00D-03
 ORBITAL =  1.00D-05  CIVEC   =  1.00D-05  COEFF   =  1.00D-04  PRINTCI =  0.00D+00  PUNCHCI =  9.90D+01  OPTGRAD =  3.00D-04
 OPTENERG=  1.00D-06  OPTSTEP =  3.00D-04  THRGRAD =  1.00D-10  COMPRESS=  1.00D-11  VARMIN  =  1.00D-07  VARMAX  =  1.00D-03
 THRDOUB =  0.00D+00  THRDIV  =  1.00D-05  THRRED  =  1.00D-07  THRPSP  =  1.00D+00  THRDC   =  1.00D-10  THRCS   =  1.00D-10
 THRNRM  =  1.00D-08  THREQ   =  0.00D+00  THRDE   =  1.00D+00  THRREF  =  1.00D-05  SPARFAC =  1.00D+00  THRDLP  =  1.00D-07
 THRDIA  =  1.00D-10  THRDLS  =  1.00D-07  THRGPS  =  0.00D+00  THRKEX  =  0.00D+00  THRDIS  =  2.00D-01  THRVAR  =  1.00D-10
 THRLOC  =  1.00D-06  THRGAP  =  1.00D-06  THRLOCT = -1.00D+00  THRGAPT = -1.00D+00  THRORB  =  1.00D-06  THRMLTP =  0.00D+00
 THRCPQCI=  1.00D-10  KEXTA   =  0.00D+00  THRCOARS=  0.00D+00  SYMTOL  =  1.00D-06  GRADTOL =  1.00D-06  THROVL  =  1.00D-08
 THRORTH =  1.00D-08  GRID    =  1.00D-06  GRIDMAX =  1.00D-03  DTMAX   =  0.00D+00  THROCCDE=  1.00D-01  THROCCDE=  1.00D-01
 THRPRINT=  0.00D+00


 Variable memory set to   40000000 words,  buffer space 



 Permanent file  3  wfu.dat  assigned.  Implementation=df    Size= 14.23 MB


 PROGRAM * RESTART 


 Reading variables from file 3

 _FNUC           =      0.00000000
 _BASIS          =    6-31G
 _NELEC          =     24.00000000
 _PROGRAM        =    RHF-SCF
 _DMZ            =      0.00000000
 _DMX_SCF        =      0.00000000
 _DMY_SCF        =      0.00000000
 _DMZ_SCF        =      0.00000000
 _HOMO           =      2.20000000
 _EHOMO          =     -0.16514840
 _LUMO           =      2.40000000
 _ELUMO          =      0.01204027
 _ENERGY         =    -59.51321462
 _ENERGY_METHOD  =    RHF
 _ENERGY_BASIS   =    6-31G
 _ENUC           =     36.18727945
 _EPS1(1:9)      =     -2.44606597    -0.27154166     0.01387583     0.01387583     0.01974738     0.16967502
                        0.16967502     0.17748779     0.65577377
 _EPS2(1:9)      =     -2.44595365    -0.16514840     0.06583970     0.08024304     0.10918713     0.20947133
                        0.21026523     0.32305975     0.77430831
 _EPS3(1:9)      =     -2.44595365    -0.16514840     0.06583970     0.08024304     0.10918713     0.20947133
                        0.21026523     0.32305975     0.77430831
 _EPS4(1:9)      =     -2.44586539     0.01204027     0.11857342     0.14587398     0.15178986     0.25645901
                        0.35040202     0.43718871     1.07484211
 _EPS5(1:9)      =     -2.44595365    -0.16514840     0.06583970     0.08024304     0.10918713     0.20947133
                        0.21026523     0.32305975     0.77430831
 _EPS6(1:9)      =     -2.44586539     0.01204027     0.11857342     0.14587398     0.15178986     0.25645901
                        0.35040202     0.43718871     1.07484211
 _EPS7(1:9)      =     -2.44586539     0.01204027     0.11857342     0.14587398     0.15178986     0.25645901
                        0.35040202     0.43718871     1.07484211
 _EPS8(1:9)      =     -2.44578039     0.06692471     0.18257294     0.18257294     0.19933103     0.41404808
                        0.41404808     0.60754299     1.43040756
 _IPROC_MPP      =      0.00000000
 _IPROC_MPPX     =      0.00000000
 _ORBITAL        =   2100.30000000
 _STATUS         =      1.00000000
 _DATE           =    23-Mar-20
 _LASTORB        =    RHF
 _OUTPUT         =    /scr/yuriaoto/job.022842/RHF.xml
 _PGROUP         =    D2h 
 _TIME           =    15:18:14
 R               =      1.50000000

 Geometry written to block  1 of record 700


 **********************************************************************************************************************************
 DATASETS  * FILE   NREC   LENGTH (MB)   RECORD NAMES
              3       5       14.92       500      610      700     1000     2100   
                                          VAR    BASINP    GEOM     BASIS     RHF  

 PROGRAMS   *        TOTAL   RESTART
 CPU TIMES  *         0.11      0.01
 REAL TIME  *         0.15 SEC
 DISK USED  *        27.01 MB
 **********************************************************************************************************************************


 Recomputing integrals since basis changed


 Using spherical harmonics

 Library entry LI     S 6-31G                selected for orbital group  1
 Library entry LI     P 6-31G                selected for orbital group  1


 PROGRAM * SEWARD (Integral evaluation for generally contracted gaussian basis sets)     Author: Roland Lindh, 1990

 Geometry written to block  1 of record 700


 Point group  D2h 



 ATOMIC COORDINATES

 NR  ATOM    CHARGE       X              Y              Z

   1  LI1     3.00    2.834589187    2.834589187    2.834589187
   2  LI2     3.00   -2.834589187   -2.834589187    2.834589187
   3  LI3     3.00    2.834589187   -2.834589187    2.834589187
   4  LI4     3.00   -2.834589187    2.834589187    2.834589187
   5  LI5     3.00    2.834589187    2.834589187   -2.834589187
   6  LI6     3.00   -2.834589187   -2.834589187   -2.834589187
   7  LI7     3.00    2.834589187   -2.834589187   -2.834589187
   8  LI8     3.00   -2.834589187    2.834589187   -2.834589187

 Bond lengths in Bohr (Angstrom)

 1-3  5.669178374  1-4  5.669178374  1-5  5.669178374  2-3  5.669178374  2-4  5.669178374
     ( 3.000000000)     ( 3.000000000)     ( 3.000000000)     ( 3.000000000)     ( 3.000000000)

 2-6  5.669178374  3-7  5.669178374  4-8  5.669178374  5-7  5.669178374  5-8  5.669178374
     ( 3.000000000)     ( 3.000000000)     ( 3.000000000)     ( 3.000000000)     ( 3.000000000)

 6-7  5.669178374  6-8  5.669178374
     ( 3.000000000)     ( 3.000000000)

 Bond angles

  1-3-2   90.00000000   1-3-7   90.00000000   1-4-2   90.00000000   1-4-8   90.00000000

  1-5-7   90.00000000   1-5-8   90.00000000   2-3-7   90.00000000   2-4-8   90.00000000

  2-6-7   90.00000000   2-6-8   90.00000000   3-1-4   90.00000000   3-1-5   90.00000000

  3-2-4   90.00000000   3-2-6   90.00000000   3-7-5   90.00000000   3-7-6   90.00000000

  4-1-5   90.00000000   4-2-6   90.00000000   4-8-5   90.00000000   4-8-6   90.00000000

  5-7-6   90.00000000   5-8-6   90.00000000   7-5-8   90.00000000   7-6-8   90.00000000


 BASIS DATA

   Nr Sym  Nuc  Type         Exponents   Contraction coefficients

    1.1 Ag    1  1s         642.418910     0.002143
              2  1s          96.798515     0.016209
              3  1s          22.091121     0.077316
              4  1s           6.201070     0.245786
              5  1s           1.935118     0.470189
              6  1s           0.636736     0.345471
              7  1s    
              8  1s    
    2.1 Ag    1  1s           2.324918    -0.035092
              2  1s           0.632430    -0.191233
              3  1s           0.079053     1.083988
              4  1s    
              5  1s    
              6  1s    
              7  1s    
              8  1s    
    3.1 Ag    1  1s           0.035962     1.000000
              2  1s    
              3  1s    
              4  1s    
              5  1s    
              6  1s    
              7  1s    
              8  1s    
    4.1 Ag    1  2px          2.324918     0.008942
              2 -2px          0.632430     0.141009
              3  2px          0.079053     0.945364
              4 -2px   
              5  2px   
              6 -2px   
              7  2px   
              8 -2px   
    5.1 Ag    1  2py          2.324918     0.008942
              2 -2py          0.632430     0.141009
              3 -2py          0.079053     0.945364
              4  2py   
              5  2py   
              6 -2py   
              7 -2py   
              8  2py   
    6.1 Ag    1  2pz          2.324918     0.008942
              2  2pz          0.632430     0.141009
              3  2pz          0.079053     0.945364
              4  2pz   
              5 -2pz   
              6 -2pz   
              7 -2pz   
              8 -2pz   
    7.1 Ag    1  2px          0.035962     1.000000
              2 -2px   
              3  2px   
              4 -2px   
              5  2px   
              6 -2px   
              7  2px   
              8 -2px   
    8.1 Ag    1  2py          0.035962     1.000000
              2 -2py   
              3 -2py   
              4  2py   
              5  2py   
              6 -2py   
              7 -2py   
              8  2py   
    9.1 Ag    1  2pz          0.035962     1.000000
              2  2pz   
              3  2pz   
              4  2pz   
              5 -2pz   
              6 -2pz   
              7 -2pz   
              8 -2pz   
    1.2 B3u   1  1s         642.418910     0.002143
              2 -1s          96.798515     0.016209
              3  1s          22.091121     0.077316
              4 -1s           6.201070     0.245786
              5  1s           1.935118     0.470189
              6 -1s           0.636736     0.345471
              7  1s    
              8 -1s    
    2.2 B3u   1  1s           2.324918    -0.035092
              2 -1s           0.632430    -0.191233
              3  1s           0.079053     1.083988
              4 -1s    
              5  1s    
              6 -1s    
              7  1s    
              8 -1s    
    3.2 B3u   1  1s           0.035962     1.000000
              2 -1s    
              3  1s    
              4 -1s    
              5  1s    
              6 -1s    
              7  1s    
              8 -1s    
    4.2 B3u   1  2px          2.324918     0.008942
              2  2px          0.632430     0.141009
              3  2px          0.079053     0.945364
              4  2px   
              5  2px   
              6  2px   
              7  2px   
              8  2px   
    5.2 B3u   1  2py          2.324918     0.008942
              2  2py          0.632430     0.141009
              3 -2py          0.079053     0.945364
              4 -2py   
              5  2py   
              6  2py   
              7 -2py   
              8 -2py   
    6.2 B3u   1  2pz          2.324918     0.008942
              2 -2pz          0.632430     0.141009
              3  2pz          0.079053     0.945364
              4 -2pz   
              5 -2pz   
              6  2pz   
              7 -2pz   
              8  2pz   
    7.2 B3u   1  2px          0.035962     1.000000
              2  2px   
              3  2px   
              4  2px   
              5  2px   
              6  2px   
              7  2px   
              8  2px   
    8.2 B3u   1  2py          0.035962     1.000000
              2  2py   
              3 -2py   
              4 -2py   
              5  2py   
              6  2py   
              7 -2py   
              8 -2py   
    9.2 B3u   1  2pz          0.035962     1.000000
              2 -2pz   
              3  2pz   
              4 -2pz   
              5 -2pz   
              6  2pz   
              7 -2pz   
              8  2pz   
    1.3 B2u   1  1s         642.418910     0.002143
              2 -1s          96.798515     0.016209
              3 -1s          22.091121     0.077316
              4  1s           6.201070     0.245786
              5  1s           1.935118     0.470189
              6 -1s           0.636736     0.345471
              7 -1s    
              8  1s    
    2.3 B2u   1  1s           2.324918    -0.035092
              2 -1s           0.632430    -0.191233
              3 -1s           0.079053     1.083988
              4  1s    
              5  1s    
              6 -1s    
              7 -1s    
              8  1s    
    3.3 B2u   1  1s           0.035962     1.000000
              2 -1s    
              3 -1s    
              4  1s    
              5  1s    
              6 -1s    
              7 -1s    
              8  1s    
    4.3 B2u   1  2py          2.324918     0.008942
              2  2py          0.632430     0.141009
              3  2py          0.079053     0.945364
              4  2py   
              5  2py   
              6  2py   
              7  2py   
              8  2py   
    5.3 B2u   1  2px          2.324918     0.008942
              2  2px          0.632430     0.141009
              3 -2px          0.079053     0.945364
              4 -2px   
              5  2px   
              6  2px   
              7 -2px   
              8 -2px   
    6.3 B2u   1  2pz          2.324918     0.008942
              2 -2pz          0.632430     0.141009
              3 -2pz          0.079053     0.945364
              4  2pz   
              5 -2pz   
              6  2pz   
              7  2pz   
              8 -2pz   
    7.3 B2u   1  2py          0.035962     1.000000
              2  2py   
              3  2py   
              4  2py   
              5  2py   
              6  2py   
              7  2py   
              8  2py   
    8.3 B2u   1  2px          0.035962     1.000000
              2  2px   
              3 -2px   
              4 -2px   
              5  2px   
              6  2px   
              7 -2px   
              8 -2px   
    9.3 B2u   1  2pz          0.035962     1.000000
              2 -2pz   
              3 -2pz   
              4  2pz   
              5 -2pz   
              6  2pz   
              7  2pz   
              8 -2pz   
    1.4 B1g   1  1s         642.418910     0.002143
              2  1s          96.798515     0.016209
              3 -1s          22.091121     0.077316
              4 -1s           6.201070     0.245786
              5  1s           1.935118     0.470189
              6  1s           0.636736     0.345471
              7 -1s    
              8 -1s    
    2.4 B1g   1  1s           2.324918    -0.035092
              2  1s           0.632430    -0.191233
              3 -1s           0.079053     1.083988
              4 -1s    
              5  1s    
              6  1s    
              7 -1s    
              8 -1s    
    3.4 B1g   1  1s           0.035962     1.000000
              2  1s    
              3 -1s    
              4 -1s    
              5  1s    
              6  1s    
              7 -1s    
              8 -1s    
    4.4 B1g   1  2py          2.324918     0.008942
              2 -2py          0.632430     0.141009
              3  2py          0.079053     0.945364
              4 -2py   
              5  2py   
              6 -2py   
              7  2py   
              8 -2py   
    5.4 B1g   1  2px          2.324918     0.008942
              2 -2px          0.632430     0.141009
              3 -2px          0.079053     0.945364
              4  2px   
              5  2px   
              6 -2px   
              7 -2px   
              8  2px   
    6.4 B1g   1  2pz          2.324918     0.008942
              2  2pz          0.632430     0.141009
              3 -2pz          0.079053     0.945364
              4 -2pz   
              5 -2pz   
              6 -2pz   
              7  2pz   
              8  2pz   
    7.4 B1g   1  2py          0.035962     1.000000
              2 -2py   
              3  2py   
              4 -2py   
              5  2py   
              6 -2py   
              7  2py   
              8 -2py   
    8.4 B1g   1  2px          0.035962     1.000000
              2 -2px   
              3 -2px   
              4  2px   
              5  2px   
              6 -2px   
              7 -2px   
              8  2px   
    9.4 B1g   1  2pz          0.035962     1.000000
              2  2pz   
              3 -2pz   
              4 -2pz   
              5 -2pz   
              6 -2pz   
              7  2pz   
              8  2pz   
    1.5 B1u   1  1s         642.418910     0.002143
              2  1s          96.798515     0.016209
              3  1s          22.091121     0.077316
              4  1s           6.201070     0.245786
              5 -1s           1.935118     0.470189
              6 -1s           0.636736     0.345471
              7 -1s    
              8 -1s    
    2.5 B1u   1  1s           2.324918    -0.035092
              2  1s           0.632430    -0.191233
              3  1s           0.079053     1.083988
              4  1s    
              5 -1s    
              6 -1s    
              7 -1s    
              8 -1s    
    3.5 B1u   1  1s           0.035962     1.000000
              2  1s    
              3  1s    
              4  1s    
              5 -1s    
              6 -1s    
              7 -1s    
              8 -1s    
    4.5 B1u   1  2pz          2.324918     0.008942
              2  2pz          0.632430     0.141009
              3  2pz          0.079053     0.945364
              4  2pz   
              5  2pz   
              6  2pz   
              7  2pz   
              8  2pz   
    5.5 B1u   1  2px          2.324918     0.008942
              2 -2px          0.632430     0.141009
              3  2px          0.079053     0.945364
              4 -2px   
              5 -2px   
              6  2px   
              7 -2px   
              8  2px   
    6.5 B1u   1  2py          2.324918     0.008942
              2 -2py          0.632430     0.141009
              3 -2py          0.079053     0.945364
              4  2py   
              5 -2py   
              6  2py   
              7  2py   
              8 -2py   
    7.5 B1u   1  2pz          0.035962     1.000000
              2  2pz   
              3  2pz   
              4  2pz   
              5  2pz   
              6  2pz   
              7  2pz   
              8  2pz   
    8.5 B1u   1  2px          0.035962     1.000000
              2 -2px   
              3  2px   
              4 -2px   
              5 -2px   
              6  2px   
              7 -2px   
              8  2px   
    9.5 B1u   1  2py          0.035962     1.000000
              2 -2py   
              3 -2py   
              4  2py   
              5 -2py   
              6  2py   
              7  2py   
              8 -2py   
    1.6 B2g   1  1s         642.418910     0.002143
              2 -1s          96.798515     0.016209
              3  1s          22.091121     0.077316
              4 -1s           6.201070     0.245786
              5 -1s           1.935118     0.470189
              6  1s           0.636736     0.345471
              7 -1s    
              8  1s    
    2.6 B2g   1  1s           2.324918    -0.035092
              2 -1s           0.632430    -0.191233
              3  1s           0.079053     1.083988
              4 -1s    
              5 -1s    
              6  1s    
              7 -1s    
              8  1s    
    3.6 B2g   1  1s           0.035962     1.000000
              2 -1s    
              3  1s    
              4 -1s    
              5 -1s    
              6  1s    
              7 -1s    
              8  1s    
    4.6 B2g   1  2pz          2.324918     0.008942
              2 -2pz          0.632430     0.141009
              3  2pz          0.079053     0.945364
              4 -2pz   
              5  2pz   
              6 -2pz   
              7  2pz   
              8 -2pz   
    5.6 B2g   1  2px          2.324918     0.008942
              2  2px          0.632430     0.141009
              3  2px          0.079053     0.945364
              4  2px   
              5 -2px   
              6 -2px   
              7 -2px   
              8 -2px   
    6.6 B2g   1  2py          2.324918     0.008942
              2  2py          0.632430     0.141009
              3 -2py          0.079053     0.945364
              4 -2py   
              5 -2py   
              6 -2py   
              7  2py   
              8  2py   
    7.6 B2g   1  2pz          0.035962     1.000000
              2 -2pz   
              3  2pz   
              4 -2pz   
              5  2pz   
              6 -2pz   
              7  2pz   
              8 -2pz   
    8.6 B2g   1  2px          0.035962     1.000000
              2  2px   
              3  2px   
              4  2px   
              5 -2px   
              6 -2px   
              7 -2px   
              8 -2px   
    9.6 B2g   1  2py          0.035962     1.000000
              2  2py   
              3 -2py   
              4 -2py   
              5 -2py   
              6 -2py   
              7  2py   
              8  2py   
    1.7 B3g   1  1s         642.418910     0.002143
              2 -1s          96.798515     0.016209
              3 -1s          22.091121     0.077316
              4  1s           6.201070     0.245786
              5 -1s           1.935118     0.470189
              6  1s           0.636736     0.345471
              7  1s    
              8 -1s    
    2.7 B3g   1  1s           2.324918    -0.035092
              2 -1s           0.632430    -0.191233
              3 -1s           0.079053     1.083988
              4  1s    
              5 -1s    
              6  1s    
              7  1s    
              8 -1s    
    3.7 B3g   1  1s           0.035962     1.000000
              2 -1s    
              3 -1s    
              4  1s    
              5 -1s    
              6  1s    
              7  1s    
              8 -1s    
    4.7 B3g   1  2pz          2.324918     0.008942
              2 -2pz          0.632430     0.141009
              3 -2pz          0.079053     0.945364
              4  2pz   
              5  2pz   
              6 -2pz   
              7 -2pz   
              8  2pz   
    5.7 B3g   1  2py          2.324918     0.008942
              2  2py          0.632430     0.141009
              3  2py          0.079053     0.945364
              4  2py   
              5 -2py   
              6 -2py   
              7 -2py   
              8 -2py   
    6.7 B3g   1  2px          2.324918     0.008942
              2  2px          0.632430     0.141009
              3 -2px          0.079053     0.945364
              4 -2px   
              5 -2px   
              6 -2px   
              7  2px   
              8  2px   
    7.7 B3g   1  2pz          0.035962     1.000000
              2 -2pz   
              3 -2pz   
              4  2pz   
              5  2pz   
              6 -2pz   
              7 -2pz   
              8  2pz   
    8.7 B3g   1  2py          0.035962     1.000000
              2  2py   
              3  2py   
              4  2py   
              5 -2py   
              6 -2py   
              7 -2py   
              8 -2py   
    9.7 B3g   1  2px          0.035962     1.000000
              2  2px   
              3 -2px   
              4 -2px   
              5 -2px   
              6 -2px   
              7  2px   
              8  2px   
    1.8 Au    1  1s         642.418910     0.002143
              2  1s          96.798515     0.016209
              3 -1s          22.091121     0.077316
              4 -1s           6.201070     0.245786
              5 -1s           1.935118     0.470189
              6 -1s           0.636736     0.345471
              7  1s    
              8  1s    
    2.8 Au    1  1s           2.324918    -0.035092
              2  1s           0.632430    -0.191233
              3 -1s           0.079053     1.083988
              4 -1s    
              5 -1s    
              6 -1s    
              7  1s    
              8  1s    
    3.8 Au    1  1s           0.035962     1.000000
              2  1s    
              3 -1s    
              4 -1s    
              5 -1s    
              6 -1s    
              7  1s    
              8  1s    
    4.8 Au    1  2pz          2.324918     0.008942
              2  2pz          0.632430     0.141009
              3 -2pz          0.079053     0.945364
              4 -2pz   
              5  2pz   
              6  2pz   
              7 -2pz   
              8 -2pz   
    5.8 Au    1  2py          2.324918     0.008942
              2 -2py          0.632430     0.141009
              3  2py          0.079053     0.945364
              4 -2py   
              5 -2py   
              6  2py   
              7 -2py   
              8  2py   
    6.8 Au    1  2px          2.324918     0.008942
              2 -2px          0.632430     0.141009
              3 -2px          0.079053     0.945364
              4  2px   
              5 -2px   
              6  2px   
              7  2px   
              8 -2px   
    7.8 Au    1  2pz          0.035962     1.000000
              2  2pz   
              3 -2pz   
              4 -2pz   
              5  2pz   
              6  2pz   
              7 -2pz   
              8 -2pz   
    8.8 Au    1  2py          0.035962     1.000000
              2 -2py   
              3  2py   
              4 -2py   
              5 -2py   
              6  2py   
              7 -2py   
              8  2py   
    9.8 Au    1  2px          0.035962     1.000000
              2 -2px   
              3 -2px   
              4  2px   
              5 -2px   
              6  2px   
              7  2px   
              8 -2px   

 NUCLEAR CHARGE:                   24
 NUMBER OF PRIMITIVE AOS:         176
 NUMBER OF SYMMETRY AOS:          176
 NUMBER OF CONTRACTIONS:           72   (    9Ag  +    9B3u +    9B2u +    9B1g +    9B1u +    9B2g +    9B3g +    9Au  )
 NUMBER OF CORE ORBITALS:           8   (    1Ag  +    1B3u +    1B2u +    1B1g +    1B1u +    1B2g +    1B3g +    1Au  )
 NUMBER OF VALENCE ORBITALS:       32   (    4Ag  +    4B3u +    4B2u +    4B1g +    4B1u +    4B2g +    4B3g +    4Au  )


 NUCLEAR REPULSION ENERGY   36.18727945

 Eigenvalues of metric

         1 0.236E-01 0.207E+00 0.293E+00 0.293E+00 0.956E+00 0.241E+01 0.382E+01 0.382E+01
         2 0.451E-02 0.101E+00 0.150E+00 0.186E+00 0.354E+00 0.968E+00 0.153E+01 0.162E+01
         3 0.451E-02 0.101E+00 0.150E+00 0.186E+00 0.354E+00 0.968E+00 0.153E+01 0.162E+01
         4 0.775E-03 0.268E-01 0.539E-01 0.110E+00 0.172E+00 0.338E+00 0.796E+00 0.964E+00
         5 0.451E-02 0.101E+00 0.150E+00 0.186E+00 0.354E+00 0.968E+00 0.153E+01 0.162E+01
         6 0.775E-03 0.268E-01 0.539E-01 0.110E+00 0.172E+00 0.338E+00 0.796E+00 0.964E+00
         7 0.775E-03 0.268E-01 0.539E-01 0.110E+00 0.172E+00 0.338E+00 0.796E+00 0.964E+00
         8 0.161E-03 0.932E-02 0.932E-02 0.480E-01 0.104E+00 0.201E+00 0.201E+00 0.930E+00


 Contracted 2-electron integrals neglected if value below      1.0D-11
 AO integral compression algorithm  1   Integral accuracy      1.0D-11

     8.126 MB (compressed) written to integral file ( 57.9%)


 NUMBER OF SORTED TWO-ELECTRON INTEGRALS:     453942.     BUFFER LENGTH:  32768
 NUMBER OF SEGMENTS:   1  SEGMENT LENGTH:     453942      RECORD LENGTH: 524288

 Memory used in sort:       1.01 MW

 SORT1 READ     1783296. AND WROTE      453942. INTEGRALS IN      2 RECORDS. CPU TIME:     0.02 SEC, REAL TIME:     0.03 SEC
 SORT2 READ      453942. AND WROTE      453942. INTEGRALS IN     31 RECORDS. CPU TIME:     0.06 SEC, REAL TIME:     0.06 SEC

 FILE SIZES:   FILE 1:    38.3 MBYTE,  FILE 4:     8.4 MBYTE,   TOTAL:     46.8 MBYTE

 OPERATOR DM      FOR CENTER  0  COORDINATES:    0.000000    0.000000    0.000000


 **********************************************************************************************************************************
 DATASETS  * FILE   NREC   LENGTH (MB)   RECORD NAMES
              1      19       32.37       500      700      610      900      950      970     1000      129      960     1100   
                                          VAR     GEOM    BASINP   SYMINP    ZMAT    AOBASIS   BASIS     P2S    ABASIS      S 
                                         1400     1410     1200     1210     1080     1600     1650     1300     1700   
                                           T        V       H0       H01     AOSYM     SMH    MOLCAS    ERIS     OPER   

              3       5       14.92       500      610      700     1000     2100   
                                          VAR    BASINP    GEOM     BASIS     RHF  

 PROGRAMS   *        TOTAL       INT   RESTART
 CPU TIMES  *         0.75      0.64      0.01
 REAL TIME  *         0.93 SEC
 DISK USED  *        62.05 MB
 **********************************************************************************************************************************


 PROGRAM * CCSD (Closed-shell coupled cluster)     Authors: C. Hampel, H.-J. Werner, 1991, M. Deegan, P.J. Knowles, 1992


 Input parameters for THRESH:

 ENERGY   =    1.00D-10
 COEFF    =    1.00D-12
 PRINTCI  =    0.000000
 THRPRINT =    0.000000

 Convergence thresholds:  THRVAR = 1.00D-24  THRDEN = 1.00D-10

 Number of closed-shell orbitals:  12 (   2   2   2   1   2   1   1   1 )
 Number of external orbitals:      60 (   7   7   7   8   7   8   8   8 )

 Molecular orbitals read from record     2100.3  Type=RHF/CANONICAL (state 1.1)

 Number of N-1 electron functions:              12
 Number of N-2 electron functions:              78
 Number of singly external CSFs:                88
 Number of doubly external CSFs:             32764
 Total number of CSFs:                       32853

 Length of J-op  integral file:               0.00 MB
 Length of K-op  integral file:               0.08 MB
 Length of 3-ext integral record:             0.00 MB

 Integral transformation finished. Total CPU:   0.02 sec, npass=  1  Memory used:   0.31 MW

 Reference energy:                    -59.51321462

 MP2 singlet pair energy:              -0.08139028
 MP2 triplet pair energy:              -0.04139687
 MP2 correlation energy:               -0.12278716
 MP2 total energy:                    -59.63600178

 SCS-MP2 correlation energy:           -0.12342639   (PS=  1.200000  PT=  0.333333)
 SCS-MP2 total energy:                -59.63664102

 ITER.      SQ.NORM     CORR.ENERGY   TOTAL ENERGY   ENERGY CHANGE        DEN1      VAR(S)    VAR(P)  DIIS     TIME  TIME/IT
   1      1.26792505    -0.13709658   -59.65031120    -0.01430942    -0.00642968  0.92D-03  0.66D-02  1  1     0.06     0.04
   2      1.30872230    -0.14126249   -59.65447712    -0.00416591    -0.00701784  0.55D-04  0.14D-02  2  2     0.10     0.04
   3      1.34467807    -0.14194117   -59.65515580    -0.00067868    -0.00457721  0.14D-04  0.24D-03  3  3     0.13     0.04
   4      1.35753750    -0.14204970   -59.65526433    -0.00010853    -0.00092373  0.45D-05  0.44D-04  4  4     0.17     0.04
   5      1.36346818    -0.14216946   -59.65538409    -0.00011976    -0.00029903  0.53D-06  0.73D-05  5  5     0.21     0.04
   6      1.36535096    -0.14217720   -59.65539182    -0.00000773    -0.00009800  0.71D-07  0.13D-05  6  6     0.25     0.04
   7      1.36572393    -0.14216355   -59.65537818     0.00001364    -0.00002646  0.20D-07  0.22D-06  6  1     0.30     0.04
   8      1.36583938    -0.14216271   -59.65537734     0.00000084    -0.00000548  0.71D-08  0.30D-07  6  2     0.34     0.04
   9      1.36586238    -0.14216433   -59.65537895    -0.00000162     0.00000044  0.92D-09  0.54D-08  6  3     0.38     0.04
  10      1.36587183    -0.14216444   -59.65537906    -0.00000011    -0.00000026  0.17D-09  0.99D-09  6  4     0.41     0.04
  11      1.36587453    -0.14216421   -59.65537884     0.00000023    -0.00000032  0.45D-10  0.20D-09  6  5     0.45     0.04
  12      1.36587382    -0.14216412   -59.65537875     0.00000009     0.00000003  0.14D-10  0.45D-10  6  6     0.49     0.04
  13      1.36587187    -0.14216414   -59.65537876    -0.00000002     0.00000021  0.50D-11  0.15D-10  6  1     0.53     0.04
  14      1.36587007    -0.14216416   -59.65537879    -0.00000002     0.00000019  0.13D-11  0.51D-11  6  2     0.56     0.04
  15      1.36586903    -0.14216417   -59.65537879    -0.00000000     0.00000010  0.17D-12  0.15D-11  6  3     0.60     0.04
  16      1.36586869    -0.14216416   -59.65537878     0.00000001     0.00000002  0.65D-14  0.38D-12  6  4     0.64     0.04
  17      1.36586864    -0.14216416   -59.65537878     0.00000000     0.00000000  0.20D-14  0.90D-13  6  5     0.68     0.04
  18      1.36586863    -0.14216415   -59.65537878     0.00000000    -0.00000000  0.22D-14  0.21D-13  6  6     0.72     0.04
  19      1.36586863    -0.14216415   -59.65537878     0.00000000     0.00000000  0.97D-15  0.48D-14  6  1     0.75     0.04
  20      1.36586862    -0.14216415   -59.65537878    -0.00000000     0.00000000  0.38D-15  0.11D-14  6  2     0.79     0.04
  21      1.36586862    -0.14216415   -59.65537878    -0.00000000     0.00000000  0.16D-15  0.29D-15  6  3     0.82     0.04
  22      1.36586862    -0.14216415   -59.65537878    -0.00000000     0.00000000  0.75D-16  0.94D-16  6  4     0.86     0.04
  23      1.36586862    -0.14216415   -59.65537878    -0.00000000    -0.00000000  0.29D-16  0.35D-16  6  5     0.90     0.04
  24      1.36586861    -0.14216415   -59.65537878    -0.00000000    -0.00000000  0.76D-17  0.14D-16  6  6     0.93     0.04
  25      1.36586861    -0.14216415   -59.65537878    -0.00000000    -0.00000000  0.10D-17  0.51D-17  6  1     0.97     0.04
  26      1.36586861    -0.14216415   -59.65537878    -0.00000000    -0.00000000  0.43D-19  0.15D-17  6  2     1.01     0.04
  27      1.36586861    -0.14216415   -59.65537878    -0.00000000    -0.00000000  0.56D-20  0.39D-18  6  3     1.04     0.04
  28      1.36586861    -0.14216415   -59.65537878    -0.00000000    -0.00000000  0.73D-20  0.10D-18  6  4     1.08     0.04
  29      1.36586861    -0.14216415   -59.65537878    -0.00000000    -0.00000000  0.39D-20  0.25D-19  6  5     1.12     0.04
  30      1.36586861    -0.14216415   -59.65537878     0.00000000    -0.00000000  0.20D-20  0.64D-20  6  6     1.17     0.04
  31      1.36586861    -0.14216415   -59.65537878     0.00000000    -0.00000000  0.11D-20  0.18D-20  6  1     1.25     0.04
  32      1.36586861    -0.14216415   -59.65537878     0.00000000    -0.00000000  0.57D-21  0.57D-21  6  2     1.34     0.04
  33      1.36586861    -0.14216415   -59.65537878     0.00000000    -0.00000000  0.22D-21  0.23D-21  6  3     1.42     0.05
  34      1.36586861    -0.14216415   -59.65537878     0.00000000    -0.00000000  0.54D-22  0.94D-22  6  4     1.49     0.05
  35      1.36586861    -0.14216415   -59.65537878     0.00000000    -0.00000000  0.79D-23  0.35D-22  6  5     1.55     0.05
  36      1.36586861    -0.14216415   -59.65537878     0.00000000     0.00000000  0.52D-24  0.12D-22  6  6     1.60     0.05
  37      1.36586861    -0.14216415   -59.65537878     0.00000000     0.00000000  0.12D-25  0.39D-23  6  1     1.64     0.05
  38      1.36586861    -0.14216415   -59.65537878     0.00000000     0.00000000  0.17D-25  0.10D-23  6  2     1.69     0.05
  39      1.36586861    -0.14216415   -59.65537878     0.00000000     0.00000000  0.19D-25  0.27D-24  6  3     1.73     0.05

 Norm of t1 vector:      0.06746927      S-energy:    -0.00000003      T1 diagnostic:  0.00973835
                                                                       D1 diagnostic:  0.02435572

 Singles amplitudes (print threshold =  0.000E+00):

         I         SYM. A    A   T(IA)

         1         1         1      0.00000000
         1         1         2     -0.00000000
         1         1         3     -0.00002183
         1         1         4     -0.00000000
         1         1         5      0.00000000
         1         1         6      0.00030879
         1         1         7     -0.00006278
         2         1         1     -0.00000000
         2         1         2     -0.00000000
         2         1         3     -0.02176013
         2         1         4      0.00000000
         2         1         5     -0.00000000
         2         1         6     -0.00061588
         2         1         7      0.00406232
         3         2         1     -0.00020051
         3         2         2     -0.00000000
         3         2         3      0.00044608
         3         2         4      0.00011576
         3         2         5      0.00000000
         3         2         6     -0.00034828
         3         2         7      0.00017798
         4         2         1      0.01137837
         4         2         2      0.00000000
         4         2         3      0.01367578
         4         2         4      0.01510223
         4         2         5      0.00000000
         4         2         6      0.00592609
         4         2         7     -0.00367383
         5         3         1     -0.00020051
         5         3         2     -0.00000000
         5         3         3      0.00044608
         5         3         4      0.00011576
         5         3         5     -0.00000000
         5         3         6     -0.00034828
         5         3         7      0.00017798
         6         3         1      0.01137837
         6         3         2      0.00000000
         6         3         3      0.01367578
         6         3         4      0.01510223
         6         3         5      0.00000000
         6         3         6      0.00592609
         6         3         7     -0.00367383
         7         4         1      0.00060616
         7         4         2     -0.00034421
         7         4         3     -0.00000000
         7         4         4      0.00062081
         7         4         5      0.00000799
         7         4         6     -0.00000000
         7         4         7     -0.00053164
         7         4         8      0.00027657
         8         5         1     -0.00020051
         8         5         2     -0.00000000
         8         5         3      0.00044608
         8         5         4      0.00011576
         8         5         5     -0.00000000
         8         5         6     -0.00034828
         8         5         7      0.00017798
         9         5         1      0.01137837
         9         5         2      0.00000000
         9         5         3      0.01367578
         9         5         4      0.01510223
         9         5         5      0.00000000
         9         5         6      0.00592609
         9         5         7     -0.00367383
        10         6         1      0.00060616
        10         6         2     -0.00034421
        10         6         3     -0.00000000
        10         6         4      0.00062081
        10         6         5      0.00000799
        10         6         6      0.00000000
        10         6         7     -0.00053164
        10         6         8      0.00027657
        11         7         1      0.00060616
        11         7         2     -0.00034421
        11         7         3     -0.00000000
        11         7         4      0.00062081
        11         7         5      0.00000799
        11         7         6      0.00000000
        11         7         7     -0.00053164
        11         7         8      0.00027657
        12         8         1      0.00028953
        12         8         2      0.00000000
        12         8         3     -0.00000000
        12         8         4      0.00069817
        12         8         5      0.00000000
        12         8         6      0.00000000
        12         8         7      0.00065831
        12         8         8      0.00030334

 Doubles amplitudes (print threshold =  0.000E+00):

         I         J         SYM. A    SYM. B    A         B      T(IJ, AB)

         1         1         1         1         1         1      0.00001963
         1         1         1         1         1         2      0.00000000
         1         1         1         1         1         3      0.00000000
         1         1         1         1         1         4     -0.00005600
         1         1         1         1         1         5      0.00007124
         1         1         1         1         1         6     -0.00000000
         1         1         1         1         1         7      0.00000000
         1         1         1         1         2         1      0.00000000
         1         1         1         1         2         2      0.00001963
         1         1         1         1         2         3      0.00000000
         1         1         1         1         2         4     -0.00007124
         1         1         1         1         2         5     -0.00005600
         1         1         1         1         2         6     -0.00000000
         1         1         1         1         2         7     -0.00000000
         1         1         1         1         3         1      0.00000000
         1         1         1         1         3         2      0.00000000
         1         1         1         1         3         3      0.00001634
         1         1         1         1         3         4      0.00000000
         1         1         1         1         3         5     -0.00000000
         1         1         1         1         3         6     -0.00007424
         1         1         1         1         3         7      0.00005374
         1         1         1         1         4         1     -0.00005600
         1         1         1         1         4         2     -0.00007124
         1         1         1         1         4         3      0.00000000
         1         1         1         1         4         4     -0.00019811
         1         1         1         1         4         5      0.00000000
         1         1         1         1         4         6     -0.00000000
         1         1         1         1         4         7      0.00000000
         1         1         1         1         5         1      0.00007124
         1         1         1         1         5         2     -0.00005600
         1         1         1         1         5         3     -0.00000000
         1         1         1         1         5         4      0.00000000
         1         1         1         1         5         5     -0.00019811
         1         1         1         1         5         6      0.00000000
         1         1         1         1         5         7     -0.00000000
         1         1         1         1         6         1     -0.00000000
         1         1         1         1         6         2     -0.00000000
         1         1         1         1         6         3     -0.00007424
         1         1         1         1         6         4     -0.00000000
         1         1         1         1         6         5      0.00000000
         1         1         1         1         6         6     -0.00031277
         1         1         1         1         6         7      0.00023044
         1         1         1         1         7         1      0.00000000
         1         1         1         1         7         2     -0.00000000
         1         1         1         1         7         3      0.00005374
         1         1         1         1         7         4      0.00000000
         1         1         1         1         7         5     -0.00000000
         1         1         1         1         7         6      0.00023044
         1         1         1         1         7         7     -0.00026646
         1         1         2         2         1         1     -0.00003282
         1         1         2         2         1         2     -0.00000000
         1         1         2         2         1         3      0.00006025
         1         1         2         2         1         4     -0.00004090
         1         1         2         2         1         5      0.00000000
         1         1         2         2         1         6     -0.00000366
         1         1         2         2         1         7      0.00005575
         1         1         2         2         2         1     -0.00000000
         1         1         2         2         2         2     -0.00001422
         1         1         2         2         2         3     -0.00000000
         1         1         2         2         2         4     -0.00000000
         1         1         2         2         2         5     -0.00008654
         1         1         2         2         2         6     -0.00000000
         1         1         2         2         2         7     -0.00000000
         1         1         2         2         3         1      0.00006025
         1         1         2         2         3         2     -0.00000000
         1         1         2         2         3         3     -0.00013679
         1         1         2         2         3         4     -0.00007622
         1         1         2         2         3         5      0.00000000
         1         1         2         2         3         6      0.00009772
         1         1         2         2         3         7     -0.00018293
         1         1         2         2         4         1     -0.00004090
         1         1         2         2         4         2     -0.00000000
         1         1         2         2         4         3     -0.00007622
         1         1         2         2         4         4     -0.00029595
         1         1         2         2         4         5      0.00000000
         1         1         2         2         4         6      0.00003307
         1         1         2         2         4         7     -0.00011807
         1         1         2         2         5         1      0.00000000
         1         1         2         2         5         2     -0.00008654
         1         1         2         2         5         3      0.00000000
         1         1         2         2         5         4      0.00000000
         1         1         2         2         5         5     -0.00026513
         1         1         2         2         5         6     -0.00000000
         1         1         2         2         5         7      0.00000000
         1         1         2         2         6         1     -0.00000366
         1         1         2         2         6         2     -0.00000000
         1         1         2         2         6         3      0.00009772
         1         1         2         2         6         4      0.00003307
         1         1         2         2         6         5     -0.00000000
         1         1         2         2         6         6     -0.00046072
         1         1         2         2         6         7      0.00022476
         1         1         2         2         7         1      0.00005575
         1         1         2         2         7         2     -0.00000000
         1         1         2         2         7         3     -0.00018293
         1         1         2         2         7         4     -0.00011807
         1         1         2         2         7         5      0.00000000
         1         1         2         2         7         6      0.00022476
         1         1         2         2         7         7     -0.00037043
         1         1         3         3         1         1     -0.00003282
         1         1         3         3         1         2     -0.00000000
         1         1         3         3         1         3      0.00006025
         1         1         3         3         1         4     -0.00004090
         1         1         3         3         1         5     -0.00000000
         1         1         3         3         1         6     -0.00000366
         1         1         3         3         1         7      0.00005575
         1         1         3         3         2         1     -0.00000000
         1         1         3         3         2         2     -0.00001422
         1         1         3         3         2         3     -0.00000000
         1         1         3         3         2         4     -0.00000000
         1         1         3         3         2         5     -0.00008654
         1         1         3         3         2         6     -0.00000000
         1         1         3         3         2         7     -0.00000000
         1         1         3         3         3         1      0.00006025
         1         1         3         3         3         2     -0.00000000
         1         1         3         3         3         3     -0.00013679
         1         1         3         3         3         4     -0.00007622
         1         1         3         3         3         5      0.00000000
         1         1         3         3         3         6      0.00009772
         1         1         3         3         3         7     -0.00018293
         1         1         3         3         4         1     -0.00004090
         1         1         3         3         4         2     -0.00000000
         1         1         3         3         4         3     -0.00007622
         1         1         3         3         4         4     -0.00029595
         1         1         3         3         4         5      0.00000000
         1         1         3         3         4         6      0.00003307
         1         1         3         3         4         7     -0.00011807
         1         1         3         3         5         1     -0.00000000
         1         1         3         3         5         2     -0.00008654
         1         1         3         3         5         3      0.00000000
         1         1         3         3         5         4      0.00000000
         1         1         3         3         5         5     -0.00026513
         1         1         3         3         5         6     -0.00000000
         1         1         3         3         5         7      0.00000000
         1         1         3         3         6         1     -0.00000366
         1         1         3         3         6         2     -0.00000000
         1         1         3         3         6         3      0.00009772
         1         1         3         3         6         4      0.00003307
         1         1         3         3         6         5     -0.00000000
         1         1         3         3         6         6     -0.00046072
         1         1         3         3         6         7      0.00022476
         1         1         3         3         7         1      0.00005575
         1         1         3         3         7         2     -0.00000000
         1         1         3         3         7         3     -0.00018293
         1         1         3         3         7         4     -0.00011807
         1         1         3         3         7         5      0.00000000
         1         1         3         3         7         6      0.00022476
         1         1         3         3         7         7     -0.00037043
         1         1         4         4         1         1     -0.00012372
         1         1         4         4         1         2      0.00010434
         1         1         4         4         1         3      0.00000000
         1         1         4         4         1         4     -0.00022364
         1         1         4         4         1         5     -0.00001522
         1         1         4         4         1         6      0.00000000
         1         1         4         4         1         7      0.00009318
         1         1         4         4         1         8     -0.00022383
         1         1         4         4         2         1      0.00010434
         1         1         4         4         2         2     -0.00008385
         1         1         4         4         2         3     -0.00000000
         1         1         4         4         2         4      0.00015423
         1         1         4         4         2         5     -0.00005101
         1         1         4         4         2         6      0.00000000
         1         1         4         4         2         7     -0.00005322
         1         1         4         4         2         8      0.00015250
         1         1         4         4         3         1      0.00000000
         1         1         4         4         3         2     -0.00000000
         1         1         4         4         3         3      0.00000555
         1         1         4         4         3         4     -0.00000000
         1         1         4         4         3         5      0.00000000
         1         1         4         4         3         6     -0.00003143
         1         1         4         4         3         7     -0.00000000
         1         1         4         4         3         8      0.00000000
         1         1         4         4         4         1     -0.00022364
         1         1         4         4         4         2      0.00015423
         1         1         4         4         4         3     -0.00000000
         1         1         4         4         4         4     -0.00031781
         1         1         4         4         4         5     -0.00005541
         1         1         4         4         4         6      0.00000000
         1         1         4         4         4         7      0.00015029
         1         1         4         4         4         8     -0.00033362
         1         1         4         4         5         1     -0.00001522
         1         1         4         4         5         2     -0.00005101
         1         1         4         4         5         3      0.00000000
         1         1         4         4         5         4     -0.00005541
         1         1         4         4         5         5     -0.00034735
         1         1         4         4         5         6     -0.00000000
         1         1         4         4         5         7      0.00002309
         1         1         4         4         5         8     -0.00005510
         1         1         4         4         6         1      0.00000000
         1         1         4         4         6         2      0.00000000
         1         1         4         4         6         3     -0.00003143
         1         1         4         4         6         4      0.00000000
         1         1         4         4         6         5     -0.00000000
         1         1         4         4         6         6     -0.00046301
         1         1         4         4         6         7      0.00000000
         1         1         4         4         6         8     -0.00000000
         1         1         4         4         7         1      0.00009318
         1         1         4         4         7         2     -0.00005322
         1         1         4         4         7         3     -0.00000000
         1         1         4         4         7         4      0.00015029
         1         1         4         4         7         5      0.00002309
         1         1         4         4         7         6      0.00000000
         1         1         4         4         7         7     -0.00068143
         1         1         4         4         7         8      0.00044178
         1         1         4         4         8         1     -0.00022383
         1         1         4         4         8         2      0.00015250
         1         1         4         4         8         3      0.00000000
         1         1         4         4         8         4     -0.00033362
         1         1         4         4         8         5     -0.00005510
         1         1         4         4         8         6     -0.00000000
         1         1         4         4         8         7      0.00044178
         1         1         4         4         8         8     -0.00065454
         1         1         5         5         1         1     -0.00003282
         1         1         5         5         1         2     -0.00000000
         1         1         5         5         1         3      0.00006025
         1         1         5         5         1         4     -0.00004090
         1         1         5         5         1         5      0.00000000
         1         1         5         5         1         6     -0.00000366
         1         1         5         5         1         7      0.00005575
         1         1         5         5         2         1     -0.00000000
         1         1         5         5         2         2     -0.00001422
         1         1         5         5         2         3     -0.00000000
         1         1         5         5         2         4     -0.00000000
         1         1         5         5         2         5     -0.00008654
         1         1         5         5         2         6     -0.00000000
         1         1         5         5         2         7     -0.00000000
         1         1         5         5         3         1      0.00006025
         1         1         5         5         3         2     -0.00000000
         1         1         5         5         3         3     -0.00013679
         1         1         5         5         3         4     -0.00007622
         1         1         5         5         3         5      0.00000000
         1         1         5         5         3         6      0.00009772
         1         1         5         5         3         7     -0.00018293
         1         1         5         5         4         1     -0.00004090
         1         1         5         5         4         2     -0.00000000
         1         1         5         5         4         3     -0.00007622
         1         1         5         5         4         4     -0.00029595
         1         1         5         5         4         5     -0.00000000
         1         1         5         5         4         6      0.00003307
         1         1         5         5         4         7     -0.00011807
         1         1         5         5         5         1      0.00000000
         1         1         5         5         5         2     -0.00008654
         1         1         5         5         5         3      0.00000000
         1         1         5         5         5         4     -0.00000000
         1         1         5         5         5         5     -0.00026513
         1         1         5         5         5         6     -0.00000000
         1         1         5         5         5         7      0.00000000
         1         1         5         5         6         1     -0.00000366
         1         1         5         5         6         2     -0.00000000
         1         1         5         5         6         3      0.00009772
         1         1         5         5         6         4      0.00003307
         1         1         5         5         6         5     -0.00000000
         1         1         5         5         6         6     -0.00046072
         1         1         5         5         6         7      0.00022476
         1         1         5         5         7         1      0.00005575
         1         1         5         5         7         2     -0.00000000
         1         1         5         5         7         3     -0.00018293
         1         1         5         5         7         4     -0.00011807
         1         1         5         5         7         5      0.00000000
         1         1         5         5         7         6      0.00022476
         1         1         5         5         7         7     -0.00037043
         1         1         6         6         1         1     -0.00012372
         1         1         6         6         1         2      0.00010434
         1         1         6         6         1         3      0.00000000
         1         1         6         6         1         4     -0.00022364
         1         1         6         6         1         5     -0.00001522
         1         1         6         6         1         6     -0.00000000
         1         1         6         6         1         7      0.00009318
         1         1         6         6         1         8     -0.00022383
         1         1         6         6         2         1      0.00010434
         1         1         6         6         2         2     -0.00008385
         1         1         6         6         2         3     -0.00000000
         1         1         6         6         2         4      0.00015423
         1         1         6         6         2         5     -0.00005101
         1         1         6         6         2         6      0.00000000
         1         1         6         6         2         7     -0.00005322
         1         1         6         6         2         8      0.00015250
         1         1         6         6         3         1      0.00000000
         1         1         6         6         3         2     -0.00000000
         1         1         6         6         3         3      0.00000555
         1         1         6         6         3         4     -0.00000000
         1         1         6         6         3         5      0.00000000
         1         1         6         6         3         6     -0.00003143
         1         1         6         6         3         7      0.00000000
         1         1         6         6         3         8      0.00000000
         1         1         6         6         4         1     -0.00022364
         1         1         6         6         4         2      0.00015423
         1         1         6         6         4         3     -0.00000000
         1         1         6         6         4         4     -0.00031781
         1         1         6         6         4         5     -0.00005541
         1         1         6         6         4         6      0.00000000
         1         1         6         6         4         7      0.00015029
         1         1         6         6         4         8     -0.00033362
         1         1         6         6         5         1     -0.00001522
         1         1         6         6         5         2     -0.00005101
         1         1         6         6         5         3      0.00000000
         1         1         6         6         5         4     -0.00005541
         1         1         6         6         5         5     -0.00034735
         1         1         6         6         5         6     -0.00000000
         1         1         6         6         5         7      0.00002309
         1         1         6         6         5         8     -0.00005510
         1         1         6         6         6         1     -0.00000000
         1         1         6         6         6         2      0.00000000
         1         1         6         6         6         3     -0.00003143
         1         1         6         6         6         4      0.00000000
         1         1         6         6         6         5     -0.00000000
         1         1         6         6         6         6     -0.00046301
         1         1         6         6         6         7      0.00000000
         1         1         6         6         6         8      0.00000000
         1         1         6         6         7         1      0.00009318
         1         1         6         6         7         2     -0.00005322
         1         1         6         6         7         3      0.00000000
         1         1         6         6         7         4      0.00015029
         1         1         6         6         7         5      0.00002309
         1         1         6         6         7         6      0.00000000
         1         1         6         6         7         7     -0.00068143
         1         1         6         6         7         8      0.00044178
         1         1         6         6         8         1     -0.00022383
         1         1         6         6         8         2      0.00015250
         1         1         6         6         8         3      0.00000000
         1         1         6         6         8         4     -0.00033362
         1         1         6         6         8         5     -0.00005510
         1         1         6         6         8         6      0.00000000
         1         1         6         6         8         7      0.00044178
         1         1         6         6         8         8     -0.00065454
         1         1         7         7         1         1     -0.00012372
         1         1         7         7         1         2      0.00010434
         1         1         7         7         1         3      0.00000000
         1         1         7         7         1         4     -0.00022364
         1         1         7         7         1         5     -0.00001522
         1         1         7         7         1         6      0.00000000
         1         1         7         7         1         7      0.00009318
         1         1         7         7         1         8     -0.00022383
         1         1         7         7         2         1      0.00010434
         1         1         7         7         2         2     -0.00008385
         1         1         7         7         2         3     -0.00000000
         1         1         7         7         2         4      0.00015423
         1         1         7         7         2         5     -0.00005101
         1         1         7         7         2         6     -0.00000000
         1         1         7         7         2         7     -0.00005322
         1         1         7         7         2         8      0.00015250
         1         1         7         7         3         1      0.00000000
         1         1         7         7         3         2     -0.00000000
         1         1         7         7         3         3      0.00000555
         1         1         7         7         3         4     -0.00000000
         1         1         7         7         3         5      0.00000000
         1         1         7         7         3         6     -0.00003143
         1         1         7         7         3         7     -0.00000000
         1         1         7         7         3         8      0.00000000
         1         1         7         7         4         1     -0.00022364
         1         1         7         7         4         2      0.00015423
         1         1         7         7         4         3     -0.00000000
         1         1         7         7         4         4     -0.00031781
         1         1         7         7         4         5     -0.00005541
         1         1         7         7         4         6     -0.00000000
         1         1         7         7         4         7      0.00015029
         1         1         7         7         4         8     -0.00033362
         1         1         7         7         5         1     -0.00001522
         1         1         7         7         5         2     -0.00005101
         1         1         7         7         5         3      0.00000000
         1         1         7         7         5         4     -0.00005541
         1         1         7         7         5         5     -0.00034735
         1         1         7         7         5         6     -0.00000000
         1         1         7         7         5         7      0.00002309
         1         1         7         7         5         8     -0.00005510
         1         1         7         7         6         1      0.00000000
         1         1         7         7         6         2     -0.00000000
         1         1         7         7         6         3     -0.00003143
         1         1         7         7         6         4     -0.00000000
         1         1         7         7         6         5     -0.00000000
         1         1         7         7         6         6     -0.00046301
         1         1         7         7         6         7     -0.00000000
         1         1         7         7         6         8     -0.00000000
         1         1         7         7         7         1      0.00009318
         1         1         7         7         7         2     -0.00005322
         1         1         7         7         7         3     -0.00000000
         1         1         7         7         7         4      0.00015029
         1         1         7         7         7         5      0.00002309
         1         1         7         7         7         6     -0.00000000
         1         1         7         7         7         7     -0.00068143
         1         1         7         7         7         8      0.00044178
         1         1         7         7         8         1     -0.00022383
         1         1         7         7         8         2      0.00015250
         1         1         7         7         8         3      0.00000000
         1         1         7         7         8         4     -0.00033362
         1         1         7         7         8         5     -0.00005510
         1         1         7         7         8         6     -0.00000000
         1         1         7         7         8         7      0.00044178
         1         1         7         7         8         8     -0.00065454
         1         1         8         8         1         1     -0.00004973
         1         1         8         8         1         2      0.00000000
         1         1         8         8         1         3     -0.00000000
         1         1         8         8         1         4     -0.00017252
         1         1         8         8         1         5     -0.00000000
         1         1         8         8         1         6     -0.00000000
         1         1         8         8         1         7     -0.00004750
         1         1         8         8         1         8     -0.00012602
         1         1         8         8         2         1      0.00000000
         1         1         8         8         2         2      0.00000400
         1         1         8         8         2         3     -0.00000000
         1         1         8         8         2         4      0.00000000
         1         1         8         8         2         5      0.00002383
         1         1         8         8         2         6      0.00000581
         1         1         8         8         2         7      0.00000000
         1         1         8         8         2         8      0.00000000
         1         1         8         8         3         1     -0.00000000
         1         1         8         8         3         2     -0.00000000
         1         1         8         8         3         3      0.00000400
         1         1         8         8         3         4     -0.00000000
         1         1         8         8         3         5      0.00000581
         1         1         8         8         3         6     -0.00002383
         1         1         8         8         3         7     -0.00000000
         1         1         8         8         3         8     -0.00000000
         1         1         8         8         4         1     -0.00017252
         1         1         8         8         4         2      0.00000000
         1         1         8         8         4         3     -0.00000000
         1         1         8         8         4         4     -0.00053827
         1         1         8         8         4         5      0.00000000
         1         1         8         8         4         6      0.00000000
         1         1         8         8         4         7     -0.00021247
         1         1         8         8         4         8     -0.00046048
         1         1         8         8         5         1     -0.00000000
         1         1         8         8         5         2      0.00002383
         1         1         8         8         5         3      0.00000581
         1         1         8         8         5         4      0.00000000
         1         1         8         8         5         5     -0.00056901
         1         1         8         8         5         6     -0.00000000
         1         1         8         8         5         7      0.00000000
         1         1         8         8         5         8      0.00000000
         1         1         8         8         6         1     -0.00000000
         1         1         8         8         6         2      0.00000581
         1         1         8         8         6         3     -0.00002383
         1         1         8         8         6         4      0.00000000
         1         1         8         8         6         5     -0.00000000
         1         1         8         8         6         6     -0.00056901
         1         1         8         8         6         7      0.00000000
         1         1         8         8         6         8      0.00000000
         1         1         8         8         7         1     -0.00004750
         1         1         8         8         7         2      0.00000000
         1         1         8         8         7         3     -0.00000000
         1         1         8         8         7         4     -0.00021247
         1         1         8         8         7         5      0.00000000
         1         1         8         8         7         6      0.00000000
         1         1         8         8         7         7     -0.00102889
         1         1         8         8         7         8     -0.00064807
         1         1         8         8         8         1     -0.00012602
         1         1         8         8         8         2      0.00000000
         1         1         8         8         8         3     -0.00000000
         1         1         8         8         8         4     -0.00046048
         1         1         8         8         8         5      0.00000000
         1         1         8         8         8         6      0.00000000
         1         1         8         8         8         7     -0.00064807
         1         1         8         8         8         8     -0.00085965
         2         1         1         1         1         1     -0.00036136
         2         1         1         1         1         2     -0.00000000
         2         1         1         1         1         3     -0.00000000
         2         1         1         1         1         4     -0.00034419
         2         1         1         1         1         5      0.00043791
         2         1         1         1         1         6      0.00000000
         2         1         1         1         1         7     -0.00000000
         2         1         1         1         2         1     -0.00000000
         2         1         1         1         2         2     -0.00036136
         2         1         1         1         2         3     -0.00000000
         2         1         1         1         2         4     -0.00043791
         2         1         1         1         2         5     -0.00034419
         2         1         1         1         2         6      0.00000000
         2         1         1         1         2         7      0.00000000
         2         1         1         1         3         1     -0.00000000
         2         1         1         1         3         2     -0.00000000
         2         1         1         1         3         3     -0.00039169
         2         1         1         1         3         4     -0.00000000
         2         1         1         1         3         5      0.00000000
         2         1         1         1         3         6     -0.00063444
         2         1         1         1         3         7      0.00025586
         2         1         1         1         4         1     -0.00018647
         2         1         1         1         4         2     -0.00023725
         2         1         1         1         4         3     -0.00000000
         2         1         1         1         4         4     -0.00047165
         2         1         1         1         4         5     -0.00000000
         2         1         1         1         4         6      0.00000000
         2         1         1         1         4         7     -0.00000000
         2         1         1         1         5         1      0.00023725
         2         1         1         1         5         2     -0.00018647
         2         1         1         1         5         3      0.00000000
         2         1         1         1         5         4     -0.00000000
         2         1         1         1         5         5     -0.00047165
         2         1         1         1         5         6     -0.00000000
         2         1         1         1         5         7      0.00000000
         2         1         1         1         6         1      0.00000000
         2         1         1         1         6         2      0.00000000
         2         1         1         1         6         3     -0.00021370
         2         1         1         1         6         4      0.00000000
         2         1         1         1         6         5     -0.00000000
         2         1         1         1         6         6     -0.00034392
         2         1         1         1         6         7      0.00014240
         2         1         1         1         7         1     -0.00000000
         2         1         1         1         7         2      0.00000000
         2         1         1         1         7         3      0.00000147
         2         1         1         1         7         4     -0.00000000
         2         1         1         1         7         5      0.00000000
         2         1         1         1         7         6     -0.00000303
         2         1         1         1         7         7      0.00003448
[...]
        12         2         5         4         1         3      0.00000000
        12         2         5         4         1         4     -0.00008056
        12         2         5         4         1         5     -0.00000502
        12         2         5         4         1         6     -0.00000000
        12         2         5         4         1         7     -0.00007485
        12         2         5         4         1         8     -0.00002399
        12         2         5         4         2         1     -0.00000000
        12         2         5         4         2         2      0.00000000
        12         2         5         4         2         3      0.00005343
        12         2         5         4         2         4     -0.00000000
        12         2         5         4         2         5      0.00000000
        12         2         5         4         2         6      0.00015924
        12         2         5         4         2         7      0.00000000
        12         2         5         4         2         8     -0.00000000
        12         2         5         4         3         1      0.00008470
        12         2         5         4         3         2     -0.00006214
        12         2         5         4         3         3      0.00000000
        12         2         5         4         3         4      0.00011514
        12         2         5         4         3         5     -0.00001972
        12         2         5         4         3         6      0.00000000
        12         2         5         4         3         7     -0.00013050
        12         2         5         4         3         8      0.00011285
        12         2         5         4         4         1     -0.00010127
        12         2         5         4         4         2     -0.00006501
        12         2         5         4         4         3     -0.00000000
        12         2         5         4         4         4     -0.00000452
        12         2         5         4         4         5     -0.00025780
        12         2         5         4         4         6     -0.00000000
        12         2         5         4         4         7     -0.00040681
        12         2         5         4         4         8      0.00010251
        12         2         5         4         5         1     -0.00000000
        12         2         5         4         5         2      0.00000000
        12         2         5         4         5         3      0.00012632
        12         2         5         4         5         4     -0.00000000
        12         2         5         4         5         5      0.00000000
        12         2         5         4         5         6      0.00040858
        12         2         5         4         5         7     -0.00000000
        12         2         5         4         5         8     -0.00000000
        12         2         5         4         6         1      0.00019662
        12         2         5         4         6         2     -0.00034178
        12         2         5         4         6         3     -0.00000000
        12         2         5         4         6         4      0.00004879
        12         2         5         4         6         5     -0.00050416
        12         2         5         4         6         6      0.00000000
        12         2         5         4         6         7      0.00013485
        12         2         5         4         6         8     -0.00012698
        12         2         5         4         7         1     -0.00003025
        12         2         5         4         7         2      0.00005351
        12         2         5         4         7         3      0.00000000
        12         2         5         4         7         4      0.00002520
        12         2         5         4         7         5      0.00010437
        12         2         5         4         7         6     -0.00000000
        12         2         5         4         7         7     -0.00007956
        12         2         5         4         7         8      0.00013920
        12         2         6         3         1         1     -0.00018281
        12         2         6         3         1         2     -0.00000000
        12         2         6         3         1         3      0.00010841
        12         2         6         3         1         4     -0.00010771
        12         2         6         3         1         5      0.00000000
        12         2         6         3         1         6     -0.00004236
        12         2         6         3         1         7      0.00006776
        12         2         6         3         2         1      0.00011301
        12         2         6         3         2         2     -0.00000000
        12         2         6         3         2         3     -0.00004958
        12         2         6         3         2         4      0.00001846
        12         2         6         3         2         5      0.00000000
        12         2         6         3         2         6     -0.00007537
        12         2         6         3         2         7     -0.00004156
        12         2         6         3         3         1      0.00000000
        12         2         6         3         3         2      0.00005966
        12         2         6         3         3         3      0.00000000
        12         2         6         3         3         4     -0.00000000
        12         2         6         3         3         5      0.00007383
        12         2         6         3         3         6      0.00000000
        12         2         6         3         3         7      0.00000000
        12         2         6         3         4         1     -0.00019119
        12         2         6         3         4         2      0.00000000
        12         2         6         3         4         3      0.00013602
        12         2         6         3         4         4     -0.00012545
        12         2         6         3         4         5     -0.00000000
        12         2         6         3         4         6     -0.00009589
        12         2         6         3         4         7      0.00009788
        12         2         6         3         5         1     -0.00007991
        12         2         6         3         5         2      0.00000000
        12         2         6         3         5         3      0.00008098
        12         2         6         3         5         4     -0.00027863
        12         2         6         3         5         5      0.00000000
        12         2         6         3         5         6     -0.00042637
        12         2         6         3         5         7      0.00003474
        12         2         6         3         6         1      0.00000000
        12         2         6         3         6         2      0.00047973
        12         2         6         3         6         3     -0.00000000
        12         2         6         3         6         4      0.00000000
        12         2         6         3         6         5      0.00064844
        12         2         6         3         6         6     -0.00000000
        12         2         6         3         6         7     -0.00000000
        12         2         6         3         7         1     -0.00052142
        12         2         6         3         7         2      0.00000000
        12         2         6         3         7         3     -0.00002536
        12         2         6         3         7         4     -0.00056720
        12         2         6         3         7         5     -0.00000000
        12         2         6         3         7         6      0.00013832
        12         2         6         3         7         7     -0.00012744
        12         2         6         3         8         1      0.00012910
        12         2         6         3         8         2     -0.00000000
        12         2         6         3         8         3      0.00004263
        12         2         6         3         8         4      0.00018646
        12         2         6         3         8         5     -0.00000000
        12         2         6         3         8         6     -0.00005110
        12         2         6         3         8         7      0.00014339
        12         2         7         2         1         1     -0.00018281
        12         2         7         2         1         2     -0.00000000
        12         2         7         2         1         3      0.00010841
        12         2         7         2         1         4     -0.00010771
        12         2         7         2         1         5      0.00000000
        12         2         7         2         1         6     -0.00004236
        12         2         7         2         1         7      0.00006776
        12         2         7         2         2         1      0.00011301
        12         2         7         2         2         2     -0.00000000
        12         2         7         2         2         3     -0.00004958
        12         2         7         2         2         4      0.00001846
        12         2         7         2         2         5      0.00000000
        12         2         7         2         2         6     -0.00007537
        12         2         7         2         2         7     -0.00004156
        12         2         7         2         3         1      0.00000000
        12         2         7         2         3         2      0.00005966
        12         2         7         2         3         3      0.00000000
        12         2         7         2         3         4     -0.00000000
        12         2         7         2         3         5      0.00007383
        12         2         7         2         3         6      0.00000000
        12         2         7         2         3         7      0.00000000
        12         2         7         2         4         1     -0.00019119
        12         2         7         2         4         2     -0.00000000
        12         2         7         2         4         3      0.00013602
        12         2         7         2         4         4     -0.00012545
        12         2         7         2         4         5     -0.00000000
        12         2         7         2         4         6     -0.00009589
        12         2         7         2         4         7      0.00009788
        12         2         7         2         5         1     -0.00007991
        12         2         7         2         5         2      0.00000000
        12         2         7         2         5         3      0.00008098
        12         2         7         2         5         4     -0.00027863
        12         2         7         2         5         5      0.00000000
        12         2         7         2         5         6     -0.00042637
        12         2         7         2         5         7      0.00003474
        12         2         7         2         6         1      0.00000000
        12         2         7         2         6         2      0.00047973
        12         2         7         2         6         3     -0.00000000
        12         2         7         2         6         4      0.00000000
        12         2         7         2         6         5      0.00064844
        12         2         7         2         6         6     -0.00000000
        12         2         7         2         6         7     -0.00000000
        12         2         7         2         7         1     -0.00052142
        12         2         7         2         7         2      0.00000000
        12         2         7         2         7         3     -0.00002536
        12         2         7         2         7         4     -0.00056720
        12         2         7         2         7         5     -0.00000000
        12         2         7         2         7         6      0.00013832
        12         2         7         2         7         7     -0.00012744
        12         2         7         2         8         1      0.00012910
        12         2         7         2         8         2     -0.00000000
        12         2         7         2         8         3      0.00004263
        12         2         7         2         8         4      0.00018646
        12         2         7         2         8         5     -0.00000000
        12         2         7         2         8         6     -0.00005110
        12         2         7         2         8         7      0.00014339
        12         2         8         1         1         1      0.00000000
        12         2         8         1         1         2      0.00000000
        12         2         8         1         1         3     -0.00017623
        12         2         8         1         1         4     -0.00000000
        12         2         8         1         1         5     -0.00000000
        12         2         8         1         1         6     -0.00007128
        12         2         8         1         1         7     -0.00000835
        12         2         8         1         2         1     -0.00005552
        12         2         8         1         2         2     -0.00004877
        12         2         8         1         2         3      0.00000000
        12         2         8         1         2         4     -0.00005335
        12         2         8         1         2         5      0.00000992
        12         2         8         1         2         6      0.00000000
        12         2         8         1         2         7     -0.00000000
        12         2         8         1         3         1      0.00004877
        12         2         8         1         3         2     -0.00005552
        12         2         8         1         3         3     -0.00000000
        12         2         8         1         3         4     -0.00000992
        12         2         8         1         3         5     -0.00005335
        12         2         8         1         3         6     -0.00000000
        12         2         8         1         3         7      0.00000000
        12         2         8         1         4         1     -0.00000000
        12         2         8         1         4         2     -0.00000000
        12         2         8         1         4         3     -0.00038411
        12         2         8         1         4         4     -0.00000000
        12         2         8         1         4         5      0.00000000
        12         2         8         1         4         6     -0.00015018
        12         2         8         1         4         7     -0.00004923
        12         2         8         1         5         1      0.00046333
        12         2         8         1         5         2      0.00066150
        12         2         8         1         5         3      0.00000000
        12         2         8         1         5         4      0.00067847
        12         2         8         1         5         5      0.00003743
        12         2         8         1         5         6     -0.00000000
        12         2         8         1         5         7      0.00000000
        12         2         8         1         6         1      0.00066150
        12         2         8         1         6         2     -0.00046333
        12         2         8         1         6         3      0.00000000
        12         2         8         1         6         4      0.00003743
        12         2         8         1         6         5     -0.00067847
        12         2         8         1         6         6     -0.00000000
        12         2         8         1         6         7      0.00000000
        12         2         8         1         7         1     -0.00000000
        12         2         8         1         7         2     -0.00000000
        12         2         8         1         7         3      0.00087234
        12         2         8         1         7         4     -0.00000000
        12         2         8         1         7         5      0.00000000
        12         2         8         1         7         6      0.00062009
        12         2         8         1         7         7     -0.00011294
        12         2         8         1         8         1     -0.00000000
        12         2         8         1         8         2     -0.00000000
        12         2         8         1         8         3      0.00021721
        12         2         8         1         8         4     -0.00000000
        12         2         8         1         8         5      0.00000000
        12         2         8         1         8         6      0.00019429
        12         2         8         1         8         7     -0.00012544


 RESULTS
 =======

  Reference energy                    -59.513214624826

  Correlated core orbitals:             1.1       1.2       1.3       1.4       1.5       1.6       1.7       1.8
  Orbital energies:                    -2.4461   -2.4460   -2.4460   -2.4459   -2.4460   -2.4459   -2.4459   -2.4458

  CCSD core-core energy                -0.004522772719
  CCSD core-valence energy             -0.002803994678
  CCSD valence correlation energy      -0.134837386878

  CCSD singlet pair energy             -0.105976969432
  CCSD triplet pair energy             -0.036187155963
  CCSD correlation energy              -0.142164154275

 !CCSD total energy                   -59.655378779101

 Timing summary (sec):

 STEP                 CPU(USER)    SYS     CPU(TOT)    WALL
 Transformation          0.02      0.01      0.03      0.03
 CCSD iterations         1.84      0.14      1.98      1.98

 Program statistics:

 Available memory in ccsd:                39998624
 Min. memory needed in ccsd:                100409
 Max. memory used in ccsd:                  130193
 Max. memory used in cckext:                139877 (39 integral passes)



 **********************************************************************************************************************************
 DATASETS  * FILE   NREC   LENGTH (MB)   RECORD NAMES
              1      20       34.42       500      700      610      900      950      970     1000      129      960     1100   
                                          VAR     GEOM    BASINP   SYMINP    ZMAT    AOBASIS   BASIS     P2S    ABASIS      S 
                                         1400     1410     1200     1210     1080     1600     1650     1300     1700     1380   
                                           T        V       H0       H01     AOSYM     SMH    MOLCAS    ERIS     OPER     JKOP   

              3       5       14.92       500      610      700     1000     2100   
                                          VAR    BASINP    GEOM     BASIS     RHF  

 PROGRAMS   *        TOTAL      CCSD       INT   RESTART
 CPU TIMES  *         2.68      1.93      0.64      0.01
 REAL TIME  *         4.53 SEC
 DISK USED  *        62.05 MB
 **********************************************************************************************************************************
 Molecular orbitals read from record     2100.3  Type=RHF/CANONICAL (state 1.1)
 Occupation numbers read from record     2100.3  Type=RHF/RHF (state 1.1)
 Orbital energies read from record       2100.3  Type=RHF/CANONICAL (state 1.1)
 Redundancy group numbers read from rec  2100.3  Type=RHF/RHF (state 1.1)

 CCSD/6-31G energy=    -59.655378779101

            CCSD
    -59.65537878
 **********************************************************************************************************************************
 Molpro calculation terminated
