
 Primary working directories    : /scr/yuriaoto/job.022844/molpro.TquVHetswy
 Secondary working directories  : /scr/yuriaoto/job.022844/molpro.TquVHetswy
 Wavefunction directory         : /scr/yuriaoto/job.022844/
 Main file repository           : /scr/yuriaoto/job.022844/molpro.TquVHetswy/

 id        : yuriaoto

 Nodes             nprocs
 t-rex.ufabc.int.br    1

 Using customized tuning parameters: mindgm=8; mindgv=16; mindgc=1; mindgr=1; noblas=0; minvec=7
 default implementation of scratch files=df  


 Variables initialized (933), CPU time= 0.01 sec
 ***,
 memory,40,m
 gprint,orbital,basis,civector
 gthresh,thrprint=0,printci=0.0
 file,3,wfu.dat,old
 
 {cisd,CC_NORM_MAX=10000.0
 thresh,printci=0.0,ENERGY=1.0E-10,COEFF=1.0E-12
 print,ref=1
 wf,24,1,0;
 }
 
 Commands  initialized (760), CPU time= 0.01 sec, 617 directives.
 Default parameters read. Elapsed time= 0.04 sec

 Checking input...
 Passed
1


                                         ***  PROGRAM SYSTEM MOLPRO  ***
                                       Copyright, TTI GmbH Stuttgart, 2015
                                    Version 2019.2 linked Abr  7 2019 15:10:35


 **********************************************************************************************************************************
 LABEL *                                                                                 
  64 bit serial version                                                                  DATE: 23-Mar-20          TIME: 15:21:01  
 **********************************************************************************************************************************

 SHA1:             3a8a58c585c929645742fb5a1b7541a4ad1da699
 **********************************************************************************************************************************


 THRESHOLDS:

 ZERO    =  1.00D-12  ONEINT  =  1.00D-12  TWOINT  =  1.00D-11  PREFAC  =  1.00D-14  XXXXXX  =  1.00D-09  EORDER  =  1.00D-04
 ENERGY  =  0.00D+00  ETEST   =  0.00D+00  EDENS   =  0.00D+00  THRDEDEF=  1.00D-06  GRADIENT=  1.00D-02  STEP    =  1.00D-03
 ORBITAL =  1.00D-05  CIVEC   =  1.00D-05  COEFF   =  1.00D-04  PRINTCI =  0.00D+00  PUNCHCI =  9.90D+01  OPTGRAD =  3.00D-04
 OPTENERG=  1.00D-06  OPTSTEP =  3.00D-04  THRGRAD =  1.00D-10  COMPRESS=  1.00D-11  VARMIN  =  1.00D-07  VARMAX  =  1.00D-03
 THRDOUB =  0.00D+00  THRDIV  =  1.00D-05  THRRED  =  1.00D-07  THRPSP  =  1.00D+00  THRDC   =  1.00D-10  THRCS   =  1.00D-10
 THRNRM  =  1.00D-08  THREQ   =  0.00D+00  THRDE   =  1.00D+00  THRREF  =  1.00D-05  SPARFAC =  1.00D+00  THRDLP  =  1.00D-07
 THRDIA  =  1.00D-10  THRDLS  =  1.00D-07  THRGPS  =  0.00D+00  THRKEX  =  0.00D+00  THRDIS  =  2.00D-01  THRVAR  =  1.00D-10
 THRLOC  =  1.00D-06  THRGAP  =  1.00D-06  THRLOCT = -1.00D+00  THRGAPT = -1.00D+00  THRORB  =  1.00D-06  THRMLTP =  0.00D+00
 THRCPQCI=  1.00D-10  KEXTA   =  0.00D+00  THRCOARS=  0.00D+00  SYMTOL  =  1.00D-06  GRADTOL =  1.00D-06  THROVL  =  1.00D-08
 THRORTH =  1.00D-08  GRID    =  1.00D-06  GRIDMAX =  1.00D-03  DTMAX   =  0.00D+00  THROCCDE=  1.00D-01  THROCCDE=  1.00D-01
 THRPRINT=  0.00D+00


 Variable memory set to   40000000 words,  buffer space 



 Permanent file  3  wfu.dat  assigned.  Implementation=df    Size= 14.23 MB


 PROGRAM * RESTART 


 Reading variables from file 3

 _FNUC           =      0.00000000
 _BASIS          =    6-31G
 _NELEC          =     24.00000000
 _PROGRAM        =    RHF-SCF
 _DMZ            =      0.00000000
 _DMX_SCF        =      0.00000000
 _DMY_SCF        =      0.00000000
 _DMZ_SCF        =      0.00000000
 _HOMO           =      2.20000000
 _EHOMO          =     -0.16514840
 _LUMO           =      2.40000000
 _ELUMO          =      0.01204027
 _ENERGY         =    -59.51321462
 _ENERGY_METHOD  =    RHF
 _ENERGY_BASIS   =    6-31G
 _ENUC           =     36.18727945
 _EPS1(1:9)      =     -2.44606597    -0.27154166     0.01387583     0.01387583     0.01974738     0.16967502
                        0.16967502     0.17748779     0.65577377
 _EPS2(1:9)      =     -2.44595365    -0.16514840     0.06583970     0.08024304     0.10918713     0.20947133
                        0.21026523     0.32305975     0.77430831
 _EPS3(1:9)      =     -2.44595365    -0.16514840     0.06583970     0.08024304     0.10918713     0.20947133
                        0.21026523     0.32305975     0.77430831
 _EPS4(1:9)      =     -2.44586539     0.01204027     0.11857342     0.14587398     0.15178986     0.25645901
                        0.35040202     0.43718871     1.07484211
 _EPS5(1:9)      =     -2.44595365    -0.16514840     0.06583970     0.08024304     0.10918713     0.20947133
                        0.21026523     0.32305975     0.77430831
 _EPS6(1:9)      =     -2.44586539     0.01204027     0.11857342     0.14587398     0.15178986     0.25645901
                        0.35040202     0.43718871     1.07484211
 _EPS7(1:9)      =     -2.44586539     0.01204027     0.11857342     0.14587398     0.15178986     0.25645901
                        0.35040202     0.43718871     1.07484211
 _EPS8(1:9)      =     -2.44578039     0.06692471     0.18257294     0.18257294     0.19933103     0.41404808
                        0.41404808     0.60754299     1.43040756
 _IPROC_MPP      =      0.00000000
 _IPROC_MPPX     =      0.00000000
 _ORBITAL        =   2100.30000000
 _STATUS         =      1.00000000
 _LASTORB        =    RHF
 _OUTPUT         =    /scr/yuriaoto/job.022842/RHF.xml
 _PGROUP         =    D2h 
 _TIME           =    15:18:14
 R               =      1.50000000

 Geometry written to block  1 of record 700


 **********************************************************************************************************************************
 DATASETS  * FILE   NREC   LENGTH (MB)   RECORD NAMES
              3       5       14.92       500      610      700     1000     2100   
                                          VAR    BASINP    GEOM     BASIS     RHF  

 PROGRAMS   *        TOTAL   RESTART
 CPU TIMES  *         0.12      0.02
 REAL TIME  *         0.14 SEC
 DISK USED  *        27.01 MB
 **********************************************************************************************************************************


 Recomputing integrals since basis changed


 Using spherical harmonics

 Library entry LI     S 6-31G                selected for orbital group  1
 Library entry LI     P 6-31G                selected for orbital group  1


 PROGRAM * SEWARD (Integral evaluation for generally contracted gaussian basis sets)     Author: Roland Lindh, 1990

 Geometry written to block  1 of record 700


 Point group  D2h 



 ATOMIC COORDINATES

 NR  ATOM    CHARGE       X              Y              Z

   1  LI1     3.00    2.834589187    2.834589187    2.834589187
   2  LI2     3.00   -2.834589187   -2.834589187    2.834589187
   3  LI3     3.00    2.834589187   -2.834589187    2.834589187
   4  LI4     3.00   -2.834589187    2.834589187    2.834589187
   5  LI5     3.00    2.834589187    2.834589187   -2.834589187
   6  LI6     3.00   -2.834589187   -2.834589187   -2.834589187
   7  LI7     3.00    2.834589187   -2.834589187   -2.834589187
   8  LI8     3.00   -2.834589187    2.834589187   -2.834589187

 Bond lengths in Bohr (Angstrom)

 1-3  5.669178374  1-4  5.669178374  1-5  5.669178374  2-3  5.669178374  2-4  5.669178374
     ( 3.000000000)     ( 3.000000000)     ( 3.000000000)     ( 3.000000000)     ( 3.000000000)

 2-6  5.669178374  3-7  5.669178374  4-8  5.669178374  5-7  5.669178374  5-8  5.669178374
     ( 3.000000000)     ( 3.000000000)     ( 3.000000000)     ( 3.000000000)     ( 3.000000000)

 6-7  5.669178374  6-8  5.669178374
     ( 3.000000000)     ( 3.000000000)

 Bond angles

  1-3-2   90.00000000   1-3-7   90.00000000   1-4-2   90.00000000   1-4-8   90.00000000

  1-5-7   90.00000000   1-5-8   90.00000000   2-3-7   90.00000000   2-4-8   90.00000000

  2-6-7   90.00000000   2-6-8   90.00000000   3-1-4   90.00000000   3-1-5   90.00000000

  3-2-4   90.00000000   3-2-6   90.00000000   3-7-5   90.00000000   3-7-6   90.00000000

  4-1-5   90.00000000   4-2-6   90.00000000   4-8-5   90.00000000   4-8-6   90.00000000

  5-7-6   90.00000000   5-8-6   90.00000000   7-5-8   90.00000000   7-6-8   90.00000000


 BASIS DATA

   Nr Sym  Nuc  Type         Exponents   Contraction coefficients

    1.1 Ag    1  1s         642.418910     0.002143
              2  1s          96.798515     0.016209
              3  1s          22.091121     0.077316
              4  1s           6.201070     0.245786
              5  1s           1.935118     0.470189
              6  1s           0.636736     0.345471
              7  1s    
              8  1s    
    2.1 Ag    1  1s           2.324918    -0.035092
              2  1s           0.632430    -0.191233
              3  1s           0.079053     1.083988
              4  1s    
              5  1s    
              6  1s    
              7  1s    
              8  1s    
    3.1 Ag    1  1s           0.035962     1.000000
              2  1s    
              3  1s    
              4  1s    
              5  1s    
              6  1s    
              7  1s    
              8  1s    
    4.1 Ag    1  2px          2.324918     0.008942
              2 -2px          0.632430     0.141009
              3  2px          0.079053     0.945364
              4 -2px   
              5  2px   
              6 -2px   
              7  2px   
              8 -2px   
    5.1 Ag    1  2py          2.324918     0.008942
              2 -2py          0.632430     0.141009
              3 -2py          0.079053     0.945364
              4  2py   
              5  2py   
              6 -2py   
              7 -2py   
              8  2py   
    6.1 Ag    1  2pz          2.324918     0.008942
              2  2pz          0.632430     0.141009
              3  2pz          0.079053     0.945364
              4  2pz   
              5 -2pz   
              6 -2pz   
              7 -2pz   
              8 -2pz   
    7.1 Ag    1  2px          0.035962     1.000000
              2 -2px   
              3  2px   
              4 -2px   
              5  2px   
              6 -2px   
              7  2px   
              8 -2px   
    8.1 Ag    1  2py          0.035962     1.000000
              2 -2py   
              3 -2py   
              4  2py   
              5  2py   
              6 -2py   
              7 -2py   
              8  2py   
    9.1 Ag    1  2pz          0.035962     1.000000
              2  2pz   
              3  2pz   
              4  2pz   
              5 -2pz   
              6 -2pz   
              7 -2pz   
              8 -2pz   
    1.2 B3u   1  1s         642.418910     0.002143
              2 -1s          96.798515     0.016209
              3  1s          22.091121     0.077316
              4 -1s           6.201070     0.245786
              5  1s           1.935118     0.470189
              6 -1s           0.636736     0.345471
              7  1s    
              8 -1s    
    2.2 B3u   1  1s           2.324918    -0.035092
              2 -1s           0.632430    -0.191233
              3  1s           0.079053     1.083988
              4 -1s    
              5  1s    
              6 -1s    
              7  1s    
              8 -1s    
    3.2 B3u   1  1s           0.035962     1.000000
              2 -1s    
              3  1s    
              4 -1s    
              5  1s    
              6 -1s    
              7  1s    
              8 -1s    
    4.2 B3u   1  2px          2.324918     0.008942
              2  2px          0.632430     0.141009
              3  2px          0.079053     0.945364
              4  2px   
              5  2px   
              6  2px   
              7  2px   
              8  2px   
    5.2 B3u   1  2py          2.324918     0.008942
              2  2py          0.632430     0.141009
              3 -2py          0.079053     0.945364
              4 -2py   
              5  2py   
              6  2py   
              7 -2py   
              8 -2py   
    6.2 B3u   1  2pz          2.324918     0.008942
              2 -2pz          0.632430     0.141009
              3  2pz          0.079053     0.945364
              4 -2pz   
              5 -2pz   
              6  2pz   
              7 -2pz   
              8  2pz   
    7.2 B3u   1  2px          0.035962     1.000000
              2  2px   
              3  2px   
              4  2px   
              5  2px   
              6  2px   
              7  2px   
              8  2px   
    8.2 B3u   1  2py          0.035962     1.000000
              2  2py   
              3 -2py   
              4 -2py   
              5  2py   
              6  2py   
              7 -2py   
              8 -2py   
    9.2 B3u   1  2pz          0.035962     1.000000
              2 -2pz   
              3  2pz   
              4 -2pz   
              5 -2pz   
              6  2pz   
              7 -2pz   
              8  2pz   
    1.3 B2u   1  1s         642.418910     0.002143
              2 -1s          96.798515     0.016209
              3 -1s          22.091121     0.077316
              4  1s           6.201070     0.245786
              5  1s           1.935118     0.470189
              6 -1s           0.636736     0.345471
              7 -1s    
              8  1s    
    2.3 B2u   1  1s           2.324918    -0.035092
              2 -1s           0.632430    -0.191233
              3 -1s           0.079053     1.083988
              4  1s    
              5  1s    
              6 -1s    
              7 -1s    
              8  1s    
    3.3 B2u   1  1s           0.035962     1.000000
              2 -1s    
              3 -1s    
              4  1s    
              5  1s    
              6 -1s    
              7 -1s    
              8  1s    
    4.3 B2u   1  2py          2.324918     0.008942
              2  2py          0.632430     0.141009
              3  2py          0.079053     0.945364
              4  2py   
              5  2py   
              6  2py   
              7  2py   
              8  2py   
    5.3 B2u   1  2px          2.324918     0.008942
              2  2px          0.632430     0.141009
              3 -2px          0.079053     0.945364
              4 -2px   
              5  2px   
              6  2px   
              7 -2px   
              8 -2px   
    6.3 B2u   1  2pz          2.324918     0.008942
              2 -2pz          0.632430     0.141009
              3 -2pz          0.079053     0.945364
              4  2pz   
              5 -2pz   
              6  2pz   
              7  2pz   
              8 -2pz   
    7.3 B2u   1  2py          0.035962     1.000000
              2  2py   
              3  2py   
              4  2py   
              5  2py   
              6  2py   
              7  2py   
              8  2py   
    8.3 B2u   1  2px          0.035962     1.000000
              2  2px   
              3 -2px   
              4 -2px   
              5  2px   
              6  2px   
              7 -2px   
              8 -2px   
    9.3 B2u   1  2pz          0.035962     1.000000
              2 -2pz   
              3 -2pz   
              4  2pz   
              5 -2pz   
              6  2pz   
              7  2pz   
              8 -2pz   
    1.4 B1g   1  1s         642.418910     0.002143
              2  1s          96.798515     0.016209
              3 -1s          22.091121     0.077316
              4 -1s           6.201070     0.245786
              5  1s           1.935118     0.470189
              6  1s           0.636736     0.345471
              7 -1s    
              8 -1s    
    2.4 B1g   1  1s           2.324918    -0.035092
              2  1s           0.632430    -0.191233
              3 -1s           0.079053     1.083988
              4 -1s    
              5  1s    
              6  1s    
              7 -1s    
              8 -1s    
    3.4 B1g   1  1s           0.035962     1.000000
              2  1s    
              3 -1s    
              4 -1s    
              5  1s    
              6  1s    
              7 -1s    
              8 -1s    
    4.4 B1g   1  2py          2.324918     0.008942
              2 -2py          0.632430     0.141009
              3  2py          0.079053     0.945364
              4 -2py   
              5  2py   
              6 -2py   
              7  2py   
              8 -2py   
    5.4 B1g   1  2px          2.324918     0.008942
              2 -2px          0.632430     0.141009
              3 -2px          0.079053     0.945364
              4  2px   
              5  2px   
              6 -2px   
              7 -2px   
              8  2px   
    6.4 B1g   1  2pz          2.324918     0.008942
              2  2pz          0.632430     0.141009
              3 -2pz          0.079053     0.945364
              4 -2pz   
              5 -2pz   
              6 -2pz   
              7  2pz   
              8  2pz   
    7.4 B1g   1  2py          0.035962     1.000000
              2 -2py   
              3  2py   
              4 -2py   
              5  2py   
              6 -2py   
              7  2py   
              8 -2py   
    8.4 B1g   1  2px          0.035962     1.000000
              2 -2px   
              3 -2px   
              4  2px   
              5  2px   
              6 -2px   
              7 -2px   
              8  2px   
    9.4 B1g   1  2pz          0.035962     1.000000
              2  2pz   
              3 -2pz   
              4 -2pz   
              5 -2pz   
              6 -2pz   
              7  2pz   
              8  2pz   
    1.5 B1u   1  1s         642.418910     0.002143
              2  1s          96.798515     0.016209
              3  1s          22.091121     0.077316
              4  1s           6.201070     0.245786
              5 -1s           1.935118     0.470189
              6 -1s           0.636736     0.345471
              7 -1s    
              8 -1s    
    2.5 B1u   1  1s           2.324918    -0.035092
              2  1s           0.632430    -0.191233
              3  1s           0.079053     1.083988
              4  1s    
              5 -1s    
              6 -1s    
              7 -1s    
              8 -1s    
    3.5 B1u   1  1s           0.035962     1.000000
              2  1s    
              3  1s    
              4  1s    
              5 -1s    
              6 -1s    
              7 -1s    
              8 -1s    
    4.5 B1u   1  2pz          2.324918     0.008942
              2  2pz          0.632430     0.141009
              3  2pz          0.079053     0.945364
              4  2pz   
              5  2pz   
              6  2pz   
              7  2pz   
              8  2pz   
    5.5 B1u   1  2px          2.324918     0.008942
              2 -2px          0.632430     0.141009
              3  2px          0.079053     0.945364
              4 -2px   
              5 -2px   
              6  2px   
              7 -2px   
              8  2px   
    6.5 B1u   1  2py          2.324918     0.008942
              2 -2py          0.632430     0.141009
              3 -2py          0.079053     0.945364
              4  2py   
              5 -2py   
              6  2py   
              7  2py   
              8 -2py   
    7.5 B1u   1  2pz          0.035962     1.000000
              2  2pz   
              3  2pz   
              4  2pz   
              5  2pz   
              6  2pz   
              7  2pz   
              8  2pz   
    8.5 B1u   1  2px          0.035962     1.000000
              2 -2px   
              3  2px   
              4 -2px   
              5 -2px   
              6  2px   
              7 -2px   
              8  2px   
    9.5 B1u   1  2py          0.035962     1.000000
              2 -2py   
              3 -2py   
              4  2py   
              5 -2py   
              6  2py   
              7  2py   
              8 -2py   
    1.6 B2g   1  1s         642.418910     0.002143
              2 -1s          96.798515     0.016209
              3  1s          22.091121     0.077316
              4 -1s           6.201070     0.245786
              5 -1s           1.935118     0.470189
              6  1s           0.636736     0.345471
              7 -1s    
              8  1s    
    2.6 B2g   1  1s           2.324918    -0.035092
              2 -1s           0.632430    -0.191233
              3  1s           0.079053     1.083988
              4 -1s    
              5 -1s    
              6  1s    
              7 -1s    
              8  1s    
    3.6 B2g   1  1s           0.035962     1.000000
              2 -1s    
              3  1s    
              4 -1s    
              5 -1s    
              6  1s    
              7 -1s    
              8  1s    
    4.6 B2g   1  2pz          2.324918     0.008942
              2 -2pz          0.632430     0.141009
              3  2pz          0.079053     0.945364
              4 -2pz   
              5  2pz   
              6 -2pz   
              7  2pz   
              8 -2pz   
    5.6 B2g   1  2px          2.324918     0.008942
              2  2px          0.632430     0.141009
              3  2px          0.079053     0.945364
              4  2px   
              5 -2px   
              6 -2px   
              7 -2px   
              8 -2px   
    6.6 B2g   1  2py          2.324918     0.008942
              2  2py          0.632430     0.141009
              3 -2py          0.079053     0.945364
              4 -2py   
              5 -2py   
              6 -2py   
              7  2py   
              8  2py   
    7.6 B2g   1  2pz          0.035962     1.000000
              2 -2pz   
              3  2pz   
              4 -2pz   
              5  2pz   
              6 -2pz   
              7  2pz   
              8 -2pz   
    8.6 B2g   1  2px          0.035962     1.000000
              2  2px   
              3  2px   
              4  2px   
              5 -2px   
              6 -2px   
              7 -2px   
              8 -2px   
    9.6 B2g   1  2py          0.035962     1.000000
              2  2py   
              3 -2py   
              4 -2py   
              5 -2py   
              6 -2py   
              7  2py   
              8  2py   
    1.7 B3g   1  1s         642.418910     0.002143
              2 -1s          96.798515     0.016209
              3 -1s          22.091121     0.077316
              4  1s           6.201070     0.245786
              5 -1s           1.935118     0.470189
              6  1s           0.636736     0.345471
              7  1s    
              8 -1s    
    2.7 B3g   1  1s           2.324918    -0.035092
              2 -1s           0.632430    -0.191233
              3 -1s           0.079053     1.083988
              4  1s    
              5 -1s    
              6  1s    
              7  1s    
              8 -1s    
    3.7 B3g   1  1s           0.035962     1.000000
              2 -1s    
              3 -1s    
              4  1s    
              5 -1s    
              6  1s    
              7  1s    
              8 -1s    
    4.7 B3g   1  2pz          2.324918     0.008942
              2 -2pz          0.632430     0.141009
              3 -2pz          0.079053     0.945364
              4  2pz   
              5  2pz   
              6 -2pz   
              7 -2pz   
              8  2pz   
    5.7 B3g   1  2py          2.324918     0.008942
              2  2py          0.632430     0.141009
              3  2py          0.079053     0.945364
              4  2py   
              5 -2py   
              6 -2py   
              7 -2py   
              8 -2py   
    6.7 B3g   1  2px          2.324918     0.008942
              2  2px          0.632430     0.141009
              3 -2px          0.079053     0.945364
              4 -2px   
              5 -2px   
              6 -2px   
              7  2px   
              8  2px   
    7.7 B3g   1  2pz          0.035962     1.000000
              2 -2pz   
              3 -2pz   
              4  2pz   
              5  2pz   
              6 -2pz   
              7 -2pz   
              8  2pz   
    8.7 B3g   1  2py          0.035962     1.000000
              2  2py   
              3  2py   
              4  2py   
              5 -2py   
              6 -2py   
              7 -2py   
              8 -2py   
    9.7 B3g   1  2px          0.035962     1.000000
              2  2px   
              3 -2px   
              4 -2px   
              5 -2px   
              6 -2px   
              7  2px   
              8  2px   
    1.8 Au    1  1s         642.418910     0.002143
              2  1s          96.798515     0.016209
              3 -1s          22.091121     0.077316
              4 -1s           6.201070     0.245786
              5 -1s           1.935118     0.470189
              6 -1s           0.636736     0.345471
              7  1s    
              8  1s    
    2.8 Au    1  1s           2.324918    -0.035092
              2  1s           0.632430    -0.191233
              3 -1s           0.079053     1.083988
              4 -1s    
              5 -1s    
              6 -1s    
              7  1s    
              8  1s    
    3.8 Au    1  1s           0.035962     1.000000
              2  1s    
              3 -1s    
              4 -1s    
              5 -1s    
              6 -1s    
              7  1s    
              8  1s    
    4.8 Au    1  2pz          2.324918     0.008942
              2  2pz          0.632430     0.141009
              3 -2pz          0.079053     0.945364
              4 -2pz   
              5  2pz   
              6  2pz   
              7 -2pz   
              8 -2pz   
    5.8 Au    1  2py          2.324918     0.008942
              2 -2py          0.632430     0.141009
              3  2py          0.079053     0.945364
              4 -2py   
              5 -2py   
              6  2py   
              7 -2py   
              8  2py   
    6.8 Au    1  2px          2.324918     0.008942
              2 -2px          0.632430     0.141009
              3 -2px          0.079053     0.945364
              4  2px   
              5 -2px   
              6  2px   
              7  2px   
              8 -2px   
    7.8 Au    1  2pz          0.035962     1.000000
              2  2pz   
              3 -2pz   
              4 -2pz   
              5  2pz   
              6  2pz   
              7 -2pz   
              8 -2pz   
    8.8 Au    1  2py          0.035962     1.000000
              2 -2py   
              3  2py   
              4 -2py   
              5 -2py   
              6  2py   
              7 -2py   
              8  2py   
    9.8 Au    1  2px          0.035962     1.000000
              2 -2px   
              3 -2px   
              4  2px   
              5 -2px   
              6  2px   
              7  2px   
              8 -2px   

 NUCLEAR CHARGE:                   24
 NUMBER OF PRIMITIVE AOS:         176
 NUMBER OF SYMMETRY AOS:          176
 NUMBER OF CONTRACTIONS:           72   (    9Ag  +    9B3u +    9B2u +    9B1g +    9B1u +    9B2g +    9B3g +    9Au  )
 NUMBER OF CORE ORBITALS:           8   (    1Ag  +    1B3u +    1B2u +    1B1g +    1B1u +    1B2g +    1B3g +    1Au  )
 NUMBER OF VALENCE ORBITALS:       32   (    4Ag  +    4B3u +    4B2u +    4B1g +    4B1u +    4B2g +    4B3g +    4Au  )


 NUCLEAR REPULSION ENERGY   36.18727945

 Eigenvalues of metric

         1 0.236E-01 0.207E+00 0.293E+00 0.293E+00 0.956E+00 0.241E+01 0.382E+01 0.382E+01
         2 0.451E-02 0.101E+00 0.150E+00 0.186E+00 0.354E+00 0.968E+00 0.153E+01 0.162E+01
         3 0.451E-02 0.101E+00 0.150E+00 0.186E+00 0.354E+00 0.968E+00 0.153E+01 0.162E+01
         4 0.775E-03 0.268E-01 0.539E-01 0.110E+00 0.172E+00 0.338E+00 0.796E+00 0.964E+00
         5 0.451E-02 0.101E+00 0.150E+00 0.186E+00 0.354E+00 0.968E+00 0.153E+01 0.162E+01
         6 0.775E-03 0.268E-01 0.539E-01 0.110E+00 0.172E+00 0.338E+00 0.796E+00 0.964E+00
         7 0.775E-03 0.268E-01 0.539E-01 0.110E+00 0.172E+00 0.338E+00 0.796E+00 0.964E+00
         8 0.161E-03 0.932E-02 0.932E-02 0.480E-01 0.104E+00 0.201E+00 0.201E+00 0.930E+00


 Contracted 2-electron integrals neglected if value below      1.0D-11
 AO integral compression algorithm  1   Integral accuracy      1.0D-11

     8.126 MB (compressed) written to integral file ( 57.9%)


 NUMBER OF SORTED TWO-ELECTRON INTEGRALS:     453942.     BUFFER LENGTH:  32768
 NUMBER OF SEGMENTS:   1  SEGMENT LENGTH:     453942      RECORD LENGTH: 524288

 Memory used in sort:       1.01 MW

 SORT1 READ     1783296. AND WROTE      453942. INTEGRALS IN      2 RECORDS. CPU TIME:     0.02 SEC, REAL TIME:     0.03 SEC
 SORT2 READ      453942. AND WROTE      453942. INTEGRALS IN     31 RECORDS. CPU TIME:     0.13 SEC, REAL TIME:     0.14 SEC

 FILE SIZES:   FILE 1:    38.3 MBYTE,  FILE 4:     8.4 MBYTE,   TOTAL:     46.8 MBYTE

 OPERATOR DM      FOR CENTER  0  COORDINATES:    0.000000    0.000000    0.000000


 **********************************************************************************************************************************
 DATASETS  * FILE   NREC   LENGTH (MB)   RECORD NAMES
              1      19       32.37       500      700      610      900      950      970     1000      129      960     1100   
                                          VAR     GEOM    BASINP   SYMINP    ZMAT    AOBASIS   BASIS     P2S    ABASIS      S 
                                         1400     1410     1200     1210     1080     1600     1650     1300     1700   
                                           T        V       H0       H01     AOSYM     SMH    MOLCAS    ERIS     OPER   

              3       5       14.92       500      610      700     1000     2100   
                                          VAR    BASINP    GEOM     BASIS     RHF  

 PROGRAMS   *        TOTAL       INT   RESTART
 CPU TIMES  *         0.86      0.74      0.02
 REAL TIME  *         1.09 SEC
 DISK USED  *        62.05 MB
 **********************************************************************************************************************************


 PROGRAM * CISD (Closed-shell CI(SD))     Authors: C. Hampel, H.-J. Werner, 1991, M. Deegan, P.J. Knowles, 1992


 Input parameters for THRESH:

 ENERGY   =    1.00D-10
 COEFF    =    1.00D-12
 PRINTCI  =    0.000000
 THRPRINT =    0.000000

 Convergence thresholds:  THRVAR = 1.00D-24  THRDEN = 1.00D-10

 Number of core orbitals:           8 (   1   1   1   1   1   1   1   1 )
 Number of closed-shell orbitals:   4 (   1   1   1   0   1   0   0   0 )
 Number of external orbitals:      60 (   7   7   7   8   7   8   8   8 )

 Molecular orbitals read from record     2100.3  Type=RHF/CANONICAL (state 1.1)

 Number of N-1 electron functions:               4
 Number of N-2 electron functions:              10
 Number of singly external CSFs:                28
 Number of doubly external CSFs:              3724
 Total number of CSFs:                        3753

 Length of J-op  integral file:               0.00 MB
 Length of K-op  integral file:               0.08 MB

 Integral transformation finished. Total CPU:   0.00 sec, npass=  1  Memory used:   0.08 MW

 Reference energy:                    -59.51321462

 MP2 singlet pair energy:              -0.07480825
 MP2 triplet pair energy:              -0.04042225
 MP2 correlation energy:               -0.11523050
 MP2 total energy:                    -59.62844512

 SCS-MP2 correlation energy:           -0.11492152   (PS=  1.200000  PT=  0.333333)
 SCS-MP2 total energy:                -59.62813615

 ITER.      SQ.NORM     CORR.ENERGY   TOTAL ENERGY   ENERGY CHANGE        DEN1      VAR(S)    VAR(P)  DIIS     TIME  TIME/IT
   1      1.21735008    -0.11521786   -59.62843248     0.00001264     0.00469482  0.90D-03  0.79D-02  1  1     0.03     0.02
   2      1.23122319    -0.11577323   -59.62898786    -0.00055538    -0.00258947  0.31D-04  0.89D-03  2  2     0.05     0.02
   3      1.24787229    -0.11615931   -59.62937394    -0.00038608    -0.00254184  0.33D-05  0.13D-03  3  3     0.06     0.02
   4      1.25423625    -0.11647566   -59.62969029    -0.00031635    -0.00082218  0.46D-06  0.14D-04  4  4     0.07     0.02
   5      1.25542021    -0.11651414   -59.62972876    -0.00003847    -0.00000898  0.61D-07  0.16D-05  5  5     0.08     0.02
   6      1.25577563    -0.11652029   -59.62973491    -0.00000615    -0.00001835  0.14D-07  0.12D-06  6  6     0.09     0.02
   7      1.25580832    -0.11652082   -59.62973544    -0.00000053    -0.00000426  0.80D-09  0.91D-08  6  1     0.11     0.02
   8      1.25581203    -0.11652086   -59.62973548    -0.00000004    -0.00000060  0.21D-10  0.10D-08  6  2     0.12     0.01
   9      1.25581110    -0.11652086   -59.62973549    -0.00000000     0.00000044  0.15D-11  0.91D-10  6  3     0.13     0.01
  10      1.25581045    -0.11652086   -59.62973549    -0.00000000     0.00000007  0.36D-12  0.93D-11  6  4     0.14     0.01
  11      1.25581034    -0.11652086   -59.62973549    -0.00000000    -0.00000002  0.20D-13  0.94D-12  6  5     0.15     0.01
  12      1.25581030    -0.11652086   -59.62973549    -0.00000000    -0.00000000  0.14D-13  0.94D-13  6  6     0.16     0.01
  13      1.25581028    -0.11652086   -59.62973549    -0.00000000     0.00000000  0.14D-14  0.15D-13  6  1     0.16     0.01
  14      1.25581029    -0.11652086   -59.62973549    -0.00000000    -0.00000000  0.33D-15  0.29D-14  6  2     0.17     0.01
  15      1.25581030    -0.11652086   -59.62973549    -0.00000000    -0.00000000  0.13D-16  0.60D-15  6  3     0.18     0.01
  16      1.25581031    -0.11652086   -59.62973549     0.00000000    -0.00000000  0.34D-17  0.94D-16  6  4     0.19     0.01
  17      1.25581031    -0.11652086   -59.62973549     0.00000000    -0.00000000  0.14D-18  0.10D-16  6  5     0.20     0.01
  18      1.25581031    -0.11652086   -59.62973549     0.00000000    -0.00000000  0.37D-19  0.16D-17  6  6     0.21     0.01
  19      1.25581031    -0.11652086   -59.62973549     0.00000000    -0.00000000  0.39D-20  0.26D-18  6  1     0.21     0.01
  20      1.25581031    -0.11652086   -59.62973549     0.00000000    -0.00000000  0.13D-20  0.35D-19  6  2     0.22     0.01
  21      1.25581031    -0.11652086   -59.62973549     0.00000000     0.00000000  0.18D-21  0.47D-20  6  3     0.23     0.01
  22      1.25581031    -0.11652086   -59.62973549     0.00000000     0.00000000  0.86D-22  0.76D-21  6  4     0.24     0.01
  23      1.25581031    -0.11652086   -59.62973549     0.00000000     0.00000000  0.23D-22  0.16D-21  6  5     0.24     0.01
  24      1.25581031    -0.11652086   -59.62973549     0.00000000    -0.00000000  0.82D-23  0.35D-22  6  6     0.25     0.01
  25      1.25581031    -0.11652086   -59.62973549     0.00000000    -0.00000000  0.34D-24  0.45D-23  6  1     0.26     0.01
  26      1.25581031    -0.11652086   -59.62973549     0.00000000    -0.00000000  0.63D-25  0.74D-24  6  2     0.26     0.01


 ! DIPOLE MOMENTS:                      0.00000000     0.00000000     0.00000000



 Norm of t1 vector:      0.04032114      S-energy:    -0.00015086      T1 diagnostic:  0.01008028

 Singles amplitudes (print threshold =  0.000E+00):

         I         SYM. A    A   T(IA)

         1         1         1      0.00000000
         1         1         2     -0.00000000
         1         1         3     -0.01358299
         1         1         4     -0.00000000
         1         1         5      0.00000000
         1         1         6     -0.00101170
         1         1         7      0.00312071
         2         2         1      0.00508797
         2         2         2      0.00000000
         2         2         3      0.00784404
         2         2         4      0.00955546
         2         2         5      0.00000000
         2         2         6      0.00432648
         2         2         7     -0.00290470
         3         3         1      0.00508797
         3         3         2     -0.00000000
         3         3         3      0.00784404
         3         3         4      0.00955546
         3         3         5      0.00000000
         3         3         6      0.00432648
         3         3         7     -0.00290470
         4         5         1      0.00508797
         4         5         2      0.00000000
         4         5         3      0.00784404
         4         5         4      0.00955546
         4         5         5      0.00000000
         4         5         6      0.00432648
         4         5         7     -0.00290470

 Doubles amplitudes (print threshold =  0.000E+00):

         I         J         SYM. A    SYM. B    A         B      T(IJ, AB)

         1         1         1         1         1         1     -0.01747373
         1         1         1         1         1         2      0.00000000
         1         1         1         1         1         3      0.00000000
         1         1         1         1         1         4     -0.00663397
         1         1         1         1         1         5      0.00844041
         1         1         1         1         1         6     -0.00000000
         1         1         1         1         1         7      0.00000000
         1         1         1         1         2         1      0.00000000
         1         1         1         1         2         2     -0.01747373
         1         1         1         1         2         3      0.00000000
         1         1         1         1         2         4     -0.00844041
         1         1         1         1         2         5     -0.00663397
         1         1         1         1         2         6     -0.00000000
         1         1         1         1         2         7     -0.00000000
         1         1         1         1         3         1      0.00000000
         1         1         1         1         3         2      0.00000000
         1         1         1         1         3         3     -0.03918608
         1         1         1         1         3         4      0.00000000
         1         1         1         1         3         5     -0.00000000
         1         1         1         1         3         6     -0.01306553
         1         1         1         1         3         7     -0.00170261
         1         1         1         1         4         1     -0.00663397
         1         1         1         1         4         2     -0.00844041
         1         1         1         1         4         3      0.00000000
         1         1         1         1         4         4     -0.00758725
         1         1         1         1         4         5      0.00000000
         1         1         1         1         4         6      0.00000000
         1         1         1         1         4         7     -0.00000000
         1         1         1         1         5         1      0.00844041
         1         1         1         1         5         2     -0.00663397
         1         1         1         1         5         3     -0.00000000
         1         1         1         1         5         4      0.00000000
         1         1         1         1         5         5     -0.00758725
         1         1         1         1         5         6     -0.00000000
         1         1         1         1         5         7      0.00000000
         1         1         1         1         6         1     -0.00000000
         1         1         1         1         6         2     -0.00000000
         1         1         1         1         6         3     -0.01306553
         1         1         1         1         6         4      0.00000000
         1         1         1         1         6         5     -0.00000000
         1         1         1         1         6         6     -0.00541670
         1         1         1         1         6         7     -0.00146664
         1         1         1         1         7         1      0.00000000
         1         1         1         1         7         2     -0.00000000
         1         1         1         1         7         3     -0.00170261
         1         1         1         1         7         4     -0.00000000
         1         1         1         1         7         5      0.00000000
         1         1         1         1         7         6     -0.00146664
         1         1         1         1         7         7     -0.00210903
         1         1         2         2         1         1     -0.01470038
         1         1         2         2         1         2     -0.00000000
         1         1         2         2         1         3      0.00397487
         1         1         2         2         1         4     -0.00967205
         1         1         2         2         1         5      0.00000000
         1         1         2         2         1         6     -0.00301508
         1         1         2         2         1         7     -0.00042935
         1         1         2         2         2         1     -0.00000000
         1         1         2         2         2         2     -0.01160772
         1         1         2         2         2         3     -0.00000000
         1         1         2         2         2         4     -0.00000000
         1         1         2         2         2         5     -0.00896056
         1         1         2         2         2         6     -0.00000000
         1         1         2         2         2         7     -0.00000000
         1         1         2         2         3         1      0.00397487
         1         1         2         2         3         2     -0.00000000
         1         1         2         2         3         3     -0.00655168
         1         1         2         2         3         4      0.00347085
         1         1         2         2         3         5     -0.00000000
         1         1         2         2         3         6      0.00540517
         1         1         2         2         3         7      0.00136247
         1         1         2         2         4         1     -0.00967205
         1         1         2         2         4         2     -0.00000000
         1         1         2         2         4         3      0.00347085
         1         1         2         2         4         4     -0.00777640
         1         1         2         2         4         5      0.00000000
         1         1         2         2         4         6     -0.00323279
         1         1         2         2         4         7     -0.00060330
         1         1         2         2         5         1      0.00000000
         1         1         2         2         5         2     -0.00896056
         1         1         2         2         5         3     -0.00000000
         1         1         2         2         5         4      0.00000000
         1         1         2         2         5         5     -0.00787083
         1         1         2         2         5         6     -0.00000000
         1         1         2         2         5         7      0.00000000
         1         1         2         2         6         1     -0.00301508
         1         1         2         2         6         2     -0.00000000
         1         1         2         2         6         3      0.00540517
         1         1         2         2         6         4     -0.00323279
         1         1         2         2         6         5     -0.00000000
         1         1         2         2         6         6     -0.00564596
         1         1         2         2         6         7     -0.00123827
         1         1         2         2         7         1     -0.00042935
         1         1         2         2         7         2     -0.00000000
         1         1         2         2         7         3      0.00136247
         1         1         2         2         7         4     -0.00060330
         1         1         2         2         7         5      0.00000000
         1         1         2         2         7         6     -0.00123827
         1         1         2         2         7         7     -0.00073674
         1         1         3         3         1         1     -0.01470038
         1         1         3         3         1         2      0.00000000
         1         1         3         3         1         3      0.00397487
         1         1         3         3         1         4     -0.00967205
         1         1         3         3         1         5      0.00000000
         1         1         3         3         1         6     -0.00301508
         1         1         3         3         1         7     -0.00042935
         1         1         3         3         2         1      0.00000000
         1         1         3         3         2         2     -0.01160772
         1         1         3         3         2         3     -0.00000000
         1         1         3         3         2         4      0.00000000
         1         1         3         3         2         5     -0.00896056
         1         1         3         3         2         6     -0.00000000
         1         1         3         3         2         7     -0.00000000
         1         1         3         3         3         1      0.00397487
         1         1         3         3         3         2     -0.00000000
         1         1         3         3         3         3     -0.00655168
         1         1         3         3         3         4      0.00347085
         1         1         3         3         3         5     -0.00000000
         1         1         3         3         3         6      0.00540517
         1         1         3         3         3         7      0.00136247
         1         1         3         3         4         1     -0.00967205
         1         1         3         3         4         2      0.00000000
         1         1         3         3         4         3      0.00347085
         1         1         3         3         4         4     -0.00777640
         1         1         3         3         4         5     -0.00000000
         1         1         3         3         4         6     -0.00323279
         1         1         3         3         4         7     -0.00060330
         1         1         3         3         5         1      0.00000000
         1         1         3         3         5         2     -0.00896056
         1         1         3         3         5         3     -0.00000000
         1         1         3         3         5         4     -0.00000000
         1         1         3         3         5         5     -0.00787083
         1         1         3         3         5         6      0.00000000
         1         1         3         3         5         7      0.00000000
         1         1         3         3         6         1     -0.00301508
         1         1         3         3         6         2     -0.00000000
         1         1         3         3         6         3      0.00540517
         1         1         3         3         6         4     -0.00323279
         1         1         3         3         6         5      0.00000000
         1         1         3         3         6         6     -0.00564596
         1         1         3         3         6         7     -0.00123827
         1         1         3         3         7         1     -0.00042935
         1         1         3         3         7         2     -0.00000000
         1         1         3         3         7         3      0.00136247
         1         1         3         3         7         4     -0.00060330
         1         1         3         3         7         5      0.00000000
         1         1         3         3         7         6     -0.00123827
         1         1         3         3         7         7     -0.00073674
         1         1         4         4         1         1     -0.00907599
         1         1         4         4         1         2      0.00775158
         1         1         4         4         1         3      0.00000000
         1         1         4         4         1         4     -0.00613206
         1         1         4         4         1         5      0.00492558
         1         1         4         4         1         6     -0.00000000
         1         1         4         4         1         7      0.00435430
         1         1         4         4         1         8      0.00065013
         1         1         4         4         2         1      0.00775158
         1         1         4         4         2         2     -0.00682401
         1         1         4         4         2         3     -0.00000000
         1         1         4         4         2         4      0.00474473
         1         1         4         4         2         5     -0.00517237
         1         1         4         4         2         6      0.00000000
         1         1         4         4         2         7     -0.00336539
         1         1         4         4         2         8     -0.00061598
         1         1         4         4         3         1      0.00000000
         1         1         4         4         3         2     -0.00000000
         1         1         4         4         3         3     -0.00107983
         1         1         4         4         3         4      0.00000000
         1         1         4         4         3         5      0.00000000
         1         1         4         4         3         6     -0.00129767
         1         1         4         4         3         7     -0.00000000
         1         1         4         4         3         8      0.00000000
         1         1         4         4         4         1     -0.00613206
         1         1         4         4         4         2      0.00474473
         1         1         4         4         4         3      0.00000000
         1         1         4         4         4         4     -0.00461870
         1         1         4         4         4         5      0.00329117
         1         1         4         4         4         6      0.00000000
         1         1         4         4         4         7      0.00397191
         1         1         4         4         4         8      0.00062127
         1         1         4         4         5         1      0.00492558
         1         1         4         4         5         2     -0.00517237
         1         1         4         4         5         3      0.00000000
         1         1         4         4         5         4      0.00329117
         1         1         4         4         5         5     -0.00492001
         1         1         4         4         5         6     -0.00000000
         1         1         4         4         5         7     -0.00290384
         1         1         4         4         5         8     -0.00064100
         1         1         4         4         6         1     -0.00000000
         1         1         4         4         6         2      0.00000000
         1         1         4         4         6         3     -0.00129767
         1         1         4         4         6         4      0.00000000
         1         1         4         4         6         5     -0.00000000
         1         1         4         4         6         6     -0.00194100
         1         1         4         4         6         7      0.00000000
         1         1         4         4         6         8      0.00000000
         1         1         4         4         7         1      0.00435430
         1         1         4         4         7         2     -0.00336539
         1         1         4         4         7         3     -0.00000000
         1         1         4         4         7         4      0.00397191
         1         1         4         4         7         5     -0.00290384
         1         1         4         4         7         6      0.00000000
         1         1         4         4         7         7     -0.00481258
         1         1         4         4         7         8     -0.00072250
         1         1         4         4         8         1      0.00065013
         1         1         4         4         8         2     -0.00061598
         1         1         4         4         8         3      0.00000000
         1         1         4         4         8         4      0.00062127
         1         1         4         4         8         5     -0.00064100
         1         1         4         4         8         6      0.00000000
         1         1         4         4         8         7     -0.00072250
         1         1         4         4         8         8     -0.00028789
         1         1         5         5         1         1     -0.01470038
         1         1         5         5         1         2     -0.00000000
         1         1         5         5         1         3      0.00397487
         1         1         5         5         1         4     -0.00967205
         1         1         5         5         1         5      0.00000000
         1         1         5         5         1         6     -0.00301508
         1         1         5         5         1         7     -0.00042935
         1         1         5         5         2         1     -0.00000000
         1         1         5         5         2         2     -0.01160772
         1         1         5         5         2         3     -0.00000000
         1         1         5         5         2         4      0.00000000
         1         1         5         5         2         5     -0.00896056
         1         1         5         5         2         6     -0.00000000
         1         1         5         5         2         7     -0.00000000
         1         1         5         5         3         1      0.00397487
         1         1         5         5         3         2     -0.00000000
         1         1         5         5         3         3     -0.00655168
         1         1         5         5         3         4      0.00347085
         1         1         5         5         3         5      0.00000000
         1         1         5         5         3         6      0.00540517
         1         1         5         5         3         7      0.00136247
         1         1         5         5         4         1     -0.00967205
         1         1         5         5         4         2      0.00000000
         1         1         5         5         4         3      0.00347085
         1         1         5         5         4         4     -0.00777640
         1         1         5         5         4         5      0.00000000
         1         1         5         5         4         6     -0.00323279
         1         1         5         5         4         7     -0.00060330
         1         1         5         5         5         1      0.00000000
         1         1         5         5         5         2     -0.00896056
         1         1         5         5         5         3      0.00000000
         1         1         5         5         5         4      0.00000000
         1         1         5         5         5         5     -0.00787083
         1         1         5         5         5         6      0.00000000
         1         1         5         5         5         7      0.00000000
         1         1         5         5         6         1     -0.00301508
         1         1         5         5         6         2     -0.00000000
         1         1         5         5         6         3      0.00540517
         1         1         5         5         6         4     -0.00323279
         1         1         5         5         6         5      0.00000000
         1         1         5         5         6         6     -0.00564596
         1         1         5         5         6         7     -0.00123827
         1         1         5         5         7         1     -0.00042935
         1         1         5         5         7         2     -0.00000000
         1         1         5         5         7         3      0.00136247
         1         1         5         5         7         4     -0.00060330
         1         1         5         5         7         5      0.00000000
         1         1         5         5         7         6     -0.00123827
         1         1         5         5         7         7     -0.00073674
         1         1         6         6         1         1     -0.00907599
         1         1         6         6         1         2      0.00775158
         1         1         6         6         1         3     -0.00000000
         1         1         6         6         1         4     -0.00613206
         1         1         6         6         1         5      0.00492558
         1         1         6         6         1         6     -0.00000000
         1         1         6         6         1         7      0.00435430
         1         1         6         6         1         8      0.00065013
         1         1         6         6         2         1      0.00775158
         1         1         6         6         2         2     -0.00682401
         1         1         6         6         2         3     -0.00000000
         1         1         6         6         2         4      0.00474473
         1         1         6         6         2         5     -0.00517237
         1         1         6         6         2         6      0.00000000
         1         1         6         6         2         7     -0.00336539
         1         1         6         6         2         8     -0.00061598
         1         1         6         6         3         1     -0.00000000
         1         1         6         6         3         2     -0.00000000
         1         1         6         6         3         3     -0.00107983
         1         1         6         6         3         4     -0.00000000
         1         1         6         6         3         5     -0.00000000
         1         1         6         6         3         6     -0.00129767
         1         1         6         6         3         7      0.00000000
         1         1         6         6         3         8      0.00000000
         1         1         6         6         4         1     -0.00613206
         1         1         6         6         4         2      0.00474473
         1         1         6         6         4         3     -0.00000000
         1         1         6         6         4         4     -0.00461870
         1         1         6         6         4         5      0.00329117
         1         1         6         6         4         6     -0.00000000
         1         1         6         6         4         7      0.00397191
         1         1         6         6         4         8      0.00062127
         1         1         6         6         5         1      0.00492558
         1         1         6         6         5         2     -0.00517237
         1         1         6         6         5         3     -0.00000000
         1         1         6         6         5         4      0.00329117
         1         1         6         6         5         5     -0.00492001
         1         1         6         6         5         6      0.00000000
         1         1         6         6         5         7     -0.00290384
         1         1         6         6         5         8     -0.00064100
         1         1         6         6         6         1     -0.00000000
         1         1         6         6         6         2      0.00000000
         1         1         6         6         6         3     -0.00129767
         1         1         6         6         6         4     -0.00000000
         1         1         6         6         6         5      0.00000000
         1         1         6         6         6         6     -0.00194100
         1         1         6         6         6         7      0.00000000
         1         1         6         6         6         8     -0.00000000
         1         1         6         6         7         1      0.00435430
         1         1         6         6         7         2     -0.00336539
         1         1         6         6         7         3      0.00000000
         1         1         6         6         7         4      0.00397191
         1         1         6         6         7         5     -0.00290384
         1         1         6         6         7         6      0.00000000
         1         1         6         6         7         7     -0.00481258
         1         1         6         6         7         8     -0.00072250
         1         1         6         6         8         1      0.00065013
         1         1         6         6         8         2     -0.00061598
         1         1         6         6         8         3      0.00000000
         1         1         6         6         8         4      0.00062127
         1         1         6         6         8         5     -0.00064100
         1         1         6         6         8         6     -0.00000000
         1         1         6         6         8         7     -0.00072250
         1         1         6         6         8         8     -0.00028789
         1         1         7         7         1         1     -0.00907599
         1         1         7         7         1         2      0.00775158
         1         1         7         7         1         3      0.00000000
         1         1         7         7         1         4     -0.00613206
         1         1         7         7         1         5      0.00492558
         1         1         7         7         1         6     -0.00000000
         1         1         7         7         1         7      0.00435430
         1         1         7         7         1         8      0.00065013
         1         1         7         7         2         1      0.00775158
         1         1         7         7         2         2     -0.00682401
         1         1         7         7         2         3     -0.00000000
         1         1         7         7         2         4      0.00474473
         1         1         7         7         2         5     -0.00517237
         1         1         7         7         2         6      0.00000000
         1         1         7         7         2         7     -0.00336539
         1         1         7         7         2         8     -0.00061598
         1         1         7         7         3         1      0.00000000
         1         1         7         7         3         2     -0.00000000
         1         1         7         7         3         3     -0.00107983
         1         1         7         7         3         4      0.00000000
         1         1         7         7         3         5      0.00000000
         1         1         7         7         3         6     -0.00129767
         1         1         7         7         3         7     -0.00000000
         1         1         7         7         3         8      0.00000000
         1         1         7         7         4         1     -0.00613206
         1         1         7         7         4         2      0.00474473
         1         1         7         7         4         3      0.00000000
         1         1         7         7         4         4     -0.00461870
         1         1         7         7         4         5      0.00329117
         1         1         7         7         4         6     -0.00000000
         1         1         7         7         4         7      0.00397191
         1         1         7         7         4         8      0.00062127
         1         1         7         7         5         1      0.00492558
         1         1         7         7         5         2     -0.00517237
         1         1         7         7         5         3      0.00000000
         1         1         7         7         5         4      0.00329117
         1         1         7         7         5         5     -0.00492001
         1         1         7         7         5         6      0.00000000
         1         1         7         7         5         7     -0.00290384
         1         1         7         7         5         8     -0.00064100
         1         1         7         7         6         1     -0.00000000
         1         1         7         7         6         2      0.00000000
         1         1         7         7         6         3     -0.00129767
         1         1         7         7         6         4     -0.00000000
         1         1         7         7         6         5      0.00000000
         1         1         7         7         6         6     -0.00194100
         1         1         7         7         6         7      0.00000000
         1         1         7         7         6         8     -0.00000000
         1         1         7         7         7         1      0.00435430
         1         1         7         7         7         2     -0.00336539
         1         1         7         7         7         3     -0.00000000
         1         1         7         7         7         4      0.00397191
         1         1         7         7         7         5     -0.00290384
         1         1         7         7         7         6      0.00000000
         1         1         7         7         7         7     -0.00481258
         1         1         7         7         7         8     -0.00072250
         1         1         7         7         8         1      0.00065013
         1         1         7         7         8         2     -0.00061598
         1         1         7         7         8         3      0.00000000
         1         1         7         7         8         4      0.00062127
         1         1         7         7         8         5     -0.00064100
         1         1         7         7         8         6     -0.00000000
         1         1         7         7         8         7     -0.00072250
         1         1         7         7         8         8     -0.00028789
         1         1         8         8         1         1     -0.00209781
         1         1         8         8         1         2     -0.00000000
         1         1         8         8         1         3      0.00000000
         1         1         8         8         1         4     -0.00259719
         1         1         8         8         1         5      0.00000000
         1         1         8         8         1         6     -0.00000000
         1         1         8         8         1         7     -0.00179747
         1         1         8         8         1         8      0.00024921
         1         1         8         8         2         1     -0.00000000
         1         1         8         8         2         2     -0.00012902
         1         1         8         8         2         3     -0.00000000
         1         1         8         8         2         4      0.00000000
         1         1         8         8         2         5      0.00028466
         1         1         8         8         2         6      0.00006937
         1         1         8         8         2         7      0.00000000
         1         1         8         8         2         8      0.00000000
         1         1         8         8         3         1      0.00000000
         1         1         8         8         3         2     -0.00000000
         1         1         8         8         3         3     -0.00012902
         1         1         8         8         3         4     -0.00000000
         1         1         8         8         3         5      0.00006937
         1         1         8         8         3         6     -0.00028466
         1         1         8         8         3         7     -0.00000000
         1         1         8         8         3         8     -0.00000000
         1         1         8         8         4         1     -0.00259719
         1         1         8         8         4         2      0.00000000
         1         1         8         8         4         3     -0.00000000
         1         1         8         8         4         4     -0.00344737
         1         1         8         8         4         5     -0.00000000
         1         1         8         8         4         6     -0.00000000
         1         1         8         8         4         7     -0.00281897
         1         1         8         8         4         8      0.00031717
         1         1         8         8         5         1      0.00000000
         1         1         8         8         5         2      0.00028466
         1         1         8         8         5         3      0.00006937
         1         1         8         8         5         4     -0.00000000
         1         1         8         8         5         5     -0.00073655
         1         1         8         8         5         6      0.00000000
         1         1         8         8         5         7      0.00000000
         1         1         8         8         5         8      0.00000000
         1         1         8         8         6         1     -0.00000000
         1         1         8         8         6         2      0.00006937
         1         1         8         8         6         3     -0.00028466
         1         1         8         8         6         4     -0.00000000
         1         1         8         8         6         5      0.00000000
         1         1         8         8         6         6     -0.00073655
         1         1         8         8         6         7      0.00000000
         1         1         8         8         6         8      0.00000000
         1         1         8         8         7         1     -0.00179747
         1         1         8         8         7         2      0.00000000
         1         1         8         8         7         3     -0.00000000
         1         1         8         8         7         4     -0.00281897
         1         1         8         8         7         5      0.00000000
         1         1         8         8         7         6      0.00000000
         1         1         8         8         7         7     -0.00353366
         1         1         8         8         7         8      0.00032949
         1         1         8         8         8         1      0.00024921
         1         1         8         8         8         2      0.00000000
         1         1         8         8         8         3     -0.00000000
         1         1         8         8         8         4      0.00031717
         1         1         8         8         8         5      0.00000000
         1         1         8         8         8         6      0.00000000
         1         1         8         8         8         7      0.00032949
         1         1         8         8         8         8     -0.00017995
         2         2         1         1         1         1     -0.04109193
         2         2         1         1         1         2      0.02533708
         2         2         1         1         1         3      0.00918896
         2         2         1         1         1         4     -0.00603250
         2         2         1         1         1         5      0.01203900
         2         2         1         1         1         6      0.00446642
         2         2         1         1         1         7     -0.00105030
         2         2         1         1         2         1      0.02533708
         2         2         1         1         2         2     -0.06810957
         2         2         1         1         2         3     -0.01531264
         2         2         1         1         2         4     -0.01096700
         2         2         1         1         2         5     -0.01204970
         2         2         1         1         2         6     -0.00744292
         2         2         1         1         2         7      0.00175023
         2         2         1         1         3         1      0.00918896
         2         2         1         1         3         2     -0.01531264
         2         2         1         1         3         3     -0.02784638
         2         2         1         1         3         4      0.00202752
         2         2         1         1         3         5      0.00531905
         2         2         1         1         3         6     -0.00816523
         2         2         1         1         3         7      0.00128810
         2         2         1         1         4         1     -0.00603250
         2         2         1         1         4         2     -0.01096700
         2         2         1         1         4         3      0.00202752
         2         2         1         1         4         4     -0.00595477
         2         2         1         1         4         5     -0.00119894
         2         2         1         1         4         6     -0.00047586
         2         2         1         1         4         7     -0.00049708
         2         2         1         1         5         1      0.01203900
         2         2         1         1         5         2     -0.01204970
         2         2         1         1         5         3      0.00531905
         2         2         1         1         5         4     -0.00119894
         2         2         1         1         5         5     -0.00864308
         2         2         1         1         5         6     -0.00124839
         2         2         1         1         5         7     -0.00130406
         2         2         1         1         6         1      0.00446642
         2         2         1         1         6         2     -0.00744292
         2         2         1         1         6         3     -0.00816523
         2         2         1         1         6         4     -0.00047586
         2         2         1         1         6         5     -0.00124839
         2         2         1         1         6         6     -0.00426206
         2         2         1         1         6         7     -0.00035067
         2         2         1         1         7         1     -0.00105030
         2         2         1         1         7         2      0.00175023
         2         2         1         1         7         3      0.00128810
         2         2         1         1         7         4     -0.00049708
         2         2         1         1         7         5     -0.00130406
         2         2         1         1         7         6     -0.00035067
         2         2         1         1         7         7     -0.00113557
         2         2         2         2         1         1     -0.03466283
         2         2         2         2         1         2     -0.00000000
         2         2         2         2         1         3      0.00610943
         2         2         2         2         1         4     -0.01372862
         2         2         2         2         1         5     -0.00000000
         2         2         2         2         1         6      0.00005614
         2         2         2         2         1         7      0.00113991
         2         2         2         2         2         1     -0.00000000
         2         2         2         2         2         2     -0.01175761
         2         2         2         2         2         3     -0.00000000
         2         2         2         2         2         4      0.00000000
         2         2         2         2         2         5     -0.00635529
         2         2         2         2         2         6      0.00000000
         2         2         2         2         2         7      0.00000000
         2         2         2         2         3         1      0.00610943
         2         2         2         2         3         2     -0.00000000
         2         2         2         2         3         3     -0.01210895
         2         2         2         2         3         4      0.00597466
         2         2         2         2         3         5     -0.00000000
         2         2         2         2         3         6      0.00275052
         2         2         2         2         3         7      0.00299391
         2         2         2         2         4         1     -0.01372862
         2         2         2         2         4         2      0.00000000
         2         2         2         2         4         3      0.00597466
         2         2         2         2         4         4     -0.00937706
         2         2         2         2         4         5      0.00000000
         2         2         2         2         4         6     -0.00269743
         2         2         2         2         4         7     -0.00050340
         2         2         2         2         5         1     -0.00000000
         2         2         2         2         5         2     -0.00635529
         2         2         2         2         5         3     -0.00000000
         2         2         2         2         5         4      0.00000000
         2         2         2         2         5         5     -0.00534698
         2         2         2         2         5         6     -0.00000000
         2         2         2         2         5         7      0.00000000
         2         2         2         2         6         1      0.00005614
         2         2         2         2         6         2      0.00000000
         2         2         2         2         6         3      0.00275052
         2         2         2         2         6         4     -0.00269743
         2         2         2         2         6         5     -0.00000000
         2         2         2         2         6         6     -0.00264591
         2         2         2         2         6         7     -0.00098297
         2         2         2         2         7         1      0.00113991
         2         2         2         2         7         2      0.00000000
         2         2         2         2         7         3      0.00299391
         2         2         2         2         7         4     -0.00050340
         2         2         2         2         7         5      0.00000000
         2         2         2         2         7         6     -0.00098297
         2         2         2         2         7         7     -0.00187318
         2         2         3         3         1         1     -0.00301834
         2         2         3         3         1         2     -0.00120175
         2         2         3         3         1         3     -0.00032140
         2         2         3         3         1         4     -0.00163547
         2         2         3         3         1         5      0.00247197
         2         2         3         3         1         6     -0.00067764
         2         2         3         3         1         7     -0.00074264
         2         2         3         3         2         1     -0.00120175
         2         2         3         3         2         2     -0.01133950
[...]
         4         3         4         6         8         6      0.00004542
         4         3         4         6         8         7     -0.00023699
         4         3         4         6         8         8     -0.00014371
         4         3         5         3         1         1     -0.01821658
         4         3         5         3         1         2     -0.00588305
         4         3         5         3         1         3      0.01016392
         4         3         5         3         1         4     -0.00912824
         4         3         5         3         1         5     -0.00603306
         4         3         5         3         1         6     -0.00648705
         4         3         5         3         1         7     -0.00152083
         4         3         5         3         2         1     -0.00588305
         4         3         5         3         2         2     -0.00755533
         4         3         5         3         2         3     -0.00356357
         4         3         5         3         2         4     -0.00045445
         4         3         5         3         2         5     -0.00415992
         4         3         5         3         2         6      0.00303038
         4         3         5         3         2         7      0.00060858
         4         3         5         3         3         1      0.01016392
         4         3         5         3         3         2     -0.00356357
         4         3         5         3         3         3     -0.00154925
         4         3         5         3         3         4      0.00321344
         4         3         5         3         3         5     -0.00028392
         4         3         5         3         3         6      0.00066542
         4         3         5         3         3         7      0.00059493
         4         3         5         3         4         1     -0.00912824
         4         3         5         3         4         2     -0.00045445
         4         3         5         3         4         3      0.00321344
         4         3         5         3         4         4     -0.00656261
         4         3         5         3         4         5     -0.00148438
         4         3         5         3         4         6     -0.00328040
         4         3         5         3         4         7     -0.00053783
         4         3         5         3         5         1     -0.00603306
         4         3         5         3         5         2     -0.00415992
         4         3         5         3         5         3     -0.00028392
         4         3         5         3         5         4     -0.00148438
         4         3         5         3         5         5     -0.00355581
         4         3         5         3         5         6      0.00174196
         4         3         5         3         5         7      0.00024592
         4         3         5         3         6         1     -0.00648705
         4         3         5         3         6         2      0.00303038
         4         3         5         3         6         3      0.00066542
         4         3         5         3         6         4     -0.00328040
         4         3         5         3         6         5      0.00174196
         4         3         5         3         6         6     -0.00044622
         4         3         5         3         6         7      0.00008808
         4         3         5         3         7         1     -0.00152083
         4         3         5         3         7         2      0.00060858
         4         3         5         3         7         3      0.00059493
         4         3         5         3         7         4     -0.00053783
         4         3         5         3         7         5      0.00024592
         4         3         5         3         7         6      0.00008808
         4         3         5         3         7         7     -0.00035659
         4         3         6         4         1         1     -0.02217061
         4         3         6         4         1         2      0.00247036
         4         3         6         4         1         3     -0.00044894
         4         3         6         4         1         4     -0.01073524
         4         3         6         4         1         5     -0.00225904
         4         3         6         4         1         6     -0.00121266
         4         3         6         4         1         7      0.00553184
         4         3         6         4         1         8      0.00083745
         4         3         6         4         2         1      0.00247036
         4         3         6         4         2         2     -0.00086912
         4         3         6         4         2         3     -0.00128490
         4         3         6         4         2         4      0.00352415
         4         3         6         4         2         5     -0.00009118
         4         3         6         4         2         6     -0.00062427
         4         3         6         4         2         7     -0.00328083
         4         3         6         4         2         8     -0.00042085
         4         3         6         4         3         1     -0.00044894
         4         3         6         4         3         2     -0.00128490
         4         3         6         4         3         3     -0.00071240
         4         3         6         4         3         4     -0.00124692
         4         3         6         4         3         5     -0.00100293
         4         3         6         4         3         6     -0.00068545
         4         3         6         4         3         7      0.00094883
         4         3         6         4         3         8      0.00010295
         4         3         6         4         4         1     -0.01073524
         4         3         6         4         4         2      0.00352415
         4         3         6         4         4         3     -0.00124692
         4         3         6         4         4         4     -0.00583196
         4         3         6         4         4         5      0.00030767
         4         3         6         4         4         6     -0.00154190
         4         3         6         4         4         7      0.00345487
         4         3         6         4         4         8      0.00054611
         4         3         6         4         5         1     -0.00225904
         4         3         6         4         5         2     -0.00009118
         4         3         6         4         5         3     -0.00100293
         4         3         6         4         5         4      0.00030767
         4         3         6         4         5         5     -0.00111363
         4         3         6         4         5         6     -0.00104428
         4         3         6         4         5         7     -0.00181392
         4         3         6         4         5         8     -0.00015085
         4         3         6         4         6         1     -0.00121266
         4         3         6         4         6         2     -0.00062427
         4         3         6         4         6         3     -0.00068545
         4         3         6         4         6         4     -0.00154190
         4         3         6         4         6         5     -0.00104428
         4         3         6         4         6         6     -0.00110711
         4         3         6         4         6         7      0.00147255
         4         3         6         4         6         8      0.00021607
         4         3         6         4         7         1      0.00553184
         4         3         6         4         7         2     -0.00328083
         4         3         6         4         7         3      0.00094883
         4         3         6         4         7         4      0.00345487
         4         3         6         4         7         5     -0.00181392
         4         3         6         4         7         6      0.00147255
         4         3         6         4         7         7     -0.00286272
         4         3         6         4         7         8     -0.00041029
         4         3         6         4         8         1      0.00083745
         4         3         6         4         8         2     -0.00042085
         4         3         6         4         8         3      0.00010295
         4         3         6         4         8         4      0.00054611
         4         3         6         4         8         5     -0.00015085
         4         3         6         4         8         6      0.00021607
         4         3         6         4         8         7     -0.00041029
         4         3         6         4         8         8     -0.00020888
         4         3         7         1         1         1     -0.00202738
         4         3         7         1         1         2      0.04805764
         4         3         7         1         1         3     -0.02095453
         4         3         7         1         1         4      0.01029671
         4         3         7         1         1         5      0.01164391
         4         3         7         1         1         6     -0.01056333
         4         3         7         1         1         7     -0.00199436
         4         3         7         1         2         1      0.00435984
         4         3         7         1         2         2     -0.02500009
         4         3         7         1         2         3     -0.00014482
         4         3         7         1         2         4     -0.00657497
         4         3         7         1         2         5     -0.00805013
         4         3         7         1         2         6      0.00282215
         4         3         7         1         2         7      0.00115041
         4         3         7         1         3         1     -0.00858222
         4         3         7         1         3         2     -0.00459102
         4         3         7         1         3         3     -0.00084368
         4         3         7         1         3         4     -0.00143732
         4         3         7         1         3         5      0.00106149
         4         3         7         1         3         6     -0.00061477
         4         3         7         1         3         7     -0.00046574
         4         3         7         1         4         1      0.00192366
         4         3         7         1         4         2      0.01189635
         4         3         7         1         4         3     -0.00120505
         4         3         7         1         4         4      0.00490604
         4         3         7         1         4         5      0.00377049
         4         3         7         1         4         6     -0.00332568
         4         3         7         1         4         7     -0.00146044
         4         3         7         1         5         1      0.00216669
         4         3         7         1         5         2     -0.01042597
         4         3         7         1         5         3     -0.00686177
         4         3         7         1         5         4     -0.00375672
         4         3         7         1         5         5     -0.00456026
         4         3         7         1         5         6     -0.00117434
         4         3         7         1         5         7      0.00073311
         4         3         7         1         6         1     -0.00713805
         4         3         7         1         6         2     -0.00357754
         4         3         7         1         6         3     -0.00070488
         4         3         7         1         6         4     -0.00181683
         4         3         7         1         6         5      0.00139528
         4         3         7         1         6         6     -0.00079808
         4         3         7         1         6         7     -0.00047638
         4         3         7         1         7         1     -0.00284588
         4         3         7         1         7         2     -0.00184511
         4         3         7         1         7         3     -0.00437881
         4         3         7         1         7         4     -0.00230521
         4         3         7         1         7         5     -0.00040824
         4         3         7         1         7         6     -0.00038894
         4         3         7         1         7         7      0.00076946
         4         3         7         1         8         1     -0.00041225
         4         3         7         1         8         2     -0.00036924
         4         3         7         1         8         3     -0.00060201
         4         3         7         1         8         4     -0.00052369
         4         3         7         1         8         5     -0.00025583
         4         3         7         1         8         6      0.00012665
         4         3         7         1         8         7      0.00035683
         4         3         8         2         1         1     -0.00284862
         4         3         8         2         1         2     -0.00368524
         4         3         8         2         1         3     -0.00353061
         4         3         8         2         1         4     -0.00222838
         4         3         8         2         1         5     -0.00162162
         4         3         8         2         1         6      0.00208262
         4         3         8         2         1         7      0.00035607
         4         3         8         2         2         1     -0.00013020
         4         3         8         2         2         2      0.00113316
         4         3         8         2         2         3     -0.00003892
         4         3         8         2         2         4     -0.00020962
         4         3         8         2         2         5      0.00051877
         4         3         8         2         2         6     -0.00000359
         4         3         8         2         2         7      0.00011872
         4         3         8         2         3         1      0.00072184
         4         3         8         2         3         2     -0.00007172
         4         3         8         2         3         3      0.00103172
         4         3         8         2         3         4      0.00047578
         4         3         8         2         3         5     -0.00001033
         4         3         8         2         3         6     -0.00081330
         4         3         8         2         3         7      0.00000849
         4         3         8         2         4         1     -0.00079682
         4         3         8         2         4         2     -0.00292643
         4         3         8         2         4         3     -0.00392669
         4         3         8         2         4         4     -0.00186674
         4         3         8         2         4         5     -0.00192571
         4         3         8         2         4         6      0.00294730
         4         3         8         2         4         7      0.00051732
         4         3         8         2         5         1     -0.00020526
         4         3         8         2         5         2     -0.00136203
         4         3         8         2         5         3     -0.00006138
         4         3         8         2         5         4      0.00007930
         4         3         8         2         5         5     -0.00094884
         4         3         8         2         5         6      0.00017261
         4         3         8         2         5         7     -0.00007141
         4         3         8         2         6         1      0.00070925
         4         3         8         2         6         2     -0.00033473
         4         3         8         2         6         3      0.00140626
         4         3         8         2         6         4      0.00075494
         4         3         8         2         6         5     -0.00015390
         4         3         8         2         6         6     -0.00155459
         4         3         8         2         6         7     -0.00014138
         4         3         8         2         7         1      0.00147888
         4         3         8         2         7         2     -0.00115994
         4         3         8         2         7         3     -0.00241663
         4         3         8         2         7         4      0.00035099
         4         3         8         2         7         5     -0.00123201
         4         3         8         2         7         6      0.00240689
         4         3         8         2         7         7      0.00044064
         4         3         8         2         8         1     -0.00005939
         4         3         8         2         8         2      0.00018483
         4         3         8         2         8         3      0.00029552
         4         3         8         2         8         4      0.00011318
         4         3         8         2         8         5      0.00016267
         4         3         8         2         8         6     -0.00030571
         4         3         8         2         8         7     -0.00016407


 RESULTS
 =======

  Reference energy                    -59.513214624826
  CISD singlet pair energy             -0.086387478881
  CISD triplet pair energy             -0.029982518926
  CISD correlation energy              -0.116520861519

 !CISD total energy                   -59.629735486345

 Timing summary (sec):

 STEP                 CPU(USER)    SYS     CPU(TOT)    WALL
 CCSD iterations         0.29      0.03      0.32      0.32

 Program statistics:

 Available memory in ccsd:                39999136
 Min. memory needed in ccsd:                 19877
 Max. memory used in ccsd:                   22129
 Max. memory used in cckext:                 50333 (26 integral passes)



 **********************************************************************************************************************************
 DATASETS  * FILE   NREC   LENGTH (MB)   RECORD NAMES
              1      20       32.46       500      700      610      900      950      970     1000      129      960     1100   
                                          VAR     GEOM    BASINP   SYMINP    ZMAT    AOBASIS   BASIS     P2S    ABASIS      S 
                                         1400     1410     1200     1210     1080     1600     1650     1300     1700     1380   
                                           T        V       H0       H01     AOSYM     SMH    MOLCAS    ERIS     OPER     JKOP   

              3       5       14.92       500      610      700     1000     2100   
                                          VAR    BASINP    GEOM     BASIS     RHF  

 PROGRAMS   *        TOTAL      CISD       INT   RESTART
 CPU TIMES  *         1.23      0.36      0.74      0.02
 REAL TIME  *         1.49 SEC
 DISK USED  *        62.05 MB
 **********************************************************************************************************************************
 Molecular orbitals read from record     2100.3  Type=RHF/CANONICAL (state 1.1)
 Occupation numbers read from record     2100.3  Type=RHF/RHF (state 1.1)
 Orbital energies read from record       2100.3  Type=RHF/CANONICAL (state 1.1)
 Redundancy group numbers read from rec  2100.3  Type=RHF/RHF (state 1.1)

 CISD/6-31G energy=    -59.629735486345

            CISD
    -59.62973549
 **********************************************************************************************************************************
 Molpro calculation terminated
