
 Primary working directories    : /scr/yuriaoto/job.022842/molpro.vVQjtlOl1S
 Secondary working directories  : /scr/yuriaoto/job.022842/molpro.vVQjtlOl1S
 Wavefunction directory         : /scr/yuriaoto/job.022842/
 Main file repository           : /scr/yuriaoto/job.022842/molpro.vVQjtlOl1S/

 id        : yuriaoto

 Nodes             nprocs
 t-rex.ufabc.int.br    1

 Using customized tuning parameters: mindgm=8; mindgv=16; mindgc=1; mindgr=1; noblas=0; minvec=7
 default implementation of scratch files=df  


 Variables initialized (933), CPU time= 0.00 sec
 ***,
 memory,40,m
 gprint,orbital=15,basis
 gthresh,thrprint=0
 file,3,wfu.dat,new
 
 r = 1.5
 basis = 6-31g
 
 symmetry,x,y,z
 geomtyp=xyz
 geom={
 8
 Li8 in a cube
 Li1   r    r    r
 Li2  -r   -r    r
 Li3   r   -r    r
 Li4  -r    r    r
 Li5   r    r   -r
 Li6  -r   -r   -r
 Li7   r   -r   -r
 Li8  -r    r   -r
 }
 
 {rhf
 wf,24,1,0
 orbital,2100.3
 }
 
 {put,xml,orbitals.xml; nosort; novariables}
 
 Commands  initialized (760), CPU time= 0.01 sec, 617 directives.
 Default parameters read. Elapsed time= 0.04 sec

 Checking input...
 Passed
1


                                         ***  PROGRAM SYSTEM MOLPRO  ***
                                       Copyright, TTI GmbH Stuttgart, 2015
                                    Version 2019.2 linked Abr  7 2019 15:10:35


 **********************************************************************************************************************************
 LABEL *                                                                                 
  64 bit serial version                                                                  DATE: 23-Mar-20          TIME: 15:18:14  
 **********************************************************************************************************************************

 SHA1:             3a8a58c585c929645742fb5a1b7541a4ad1da699
 **********************************************************************************************************************************


 THRESHOLDS:

 ZERO    =  1.00D-12  ONEINT  =  1.00D-12  TWOINT  =  1.00D-11  PREFAC  =  1.00D-14  XXXXXX  =  1.00D-09  EORDER  =  1.00D-04
 ENERGY  =  0.00D+00  ETEST   =  0.00D+00  EDENS   =  0.00D+00  THRDEDEF=  1.00D-06  GRADIENT=  1.00D-02  STEP    =  1.00D-03
 ORBITAL =  1.00D-05  CIVEC   =  1.00D-05  COEFF   =  1.00D-04  PRINTCI =  5.00D-02  PUNCHCI =  9.90D+01  OPTGRAD =  3.00D-04
 OPTENERG=  1.00D-06  OPTSTEP =  3.00D-04  THRGRAD =  1.00D-10  COMPRESS=  1.00D-11  VARMIN  =  1.00D-07  VARMAX  =  1.00D-03
 THRDOUB =  0.00D+00  THRDIV  =  1.00D-05  THRRED  =  1.00D-07  THRPSP  =  1.00D+00  THRDC   =  1.00D-10  THRCS   =  1.00D-10
 THRNRM  =  1.00D-08  THREQ   =  0.00D+00  THRDE   =  1.00D+00  THRREF  =  1.00D-05  SPARFAC =  1.00D+00  THRDLP  =  1.00D-07
 THRDIA  =  1.00D-10  THRDLS  =  1.00D-07  THRGPS  =  0.00D+00  THRKEX  =  0.00D+00  THRDIS  =  2.00D-01  THRVAR  =  1.00D-10
 THRLOC  =  1.00D-06  THRGAP  =  1.00D-06  THRLOCT = -1.00D+00  THRGAPT = -1.00D+00  THRORB  =  1.00D-06  THRMLTP =  0.00D+00
 THRCPQCI=  1.00D-10  KEXTA   =  0.00D+00  THRCOARS=  0.00D+00  SYMTOL  =  1.00D-06  GRADTOL =  1.00D-06  THROVL  =  1.00D-08
 THRORTH =  1.00D-08  GRID    =  1.00D-06  GRIDMAX =  1.00D-03  DTMAX   =  0.00D+00  THROCCDE=  1.00D-01  THROCCDE=  1.00D-01
 THRPRINT=  0.00D+00


 Variable memory set to   40000000 words,  buffer space 



 Permanent file  3  wfu.dat  assigned.  Implementation=df  



 **********************************************************************************************************************************
 DATASETS  * FILE   NREC   LENGTH (MB)   RECORD NAMES
              3       1        0.03       500   
                                          VAR  

 PROGRAMS   *        TOTAL      FILE
 CPU TIMES  *         0.11      0.00
 REAL TIME  *         0.11 SEC
 DISK USED  *         0.09 MB
 **********************************************************************************************************************************
 SETTING R              =         1.50000000                                  
 SETTING BASIS          =    6-31G
 SETTING GEOMTYP        =    XYZ
 ZSYMEL=X  Y  Z  



 Recomputing integrals since basis changed


 Using spherical harmonics

 Library entry LI     S 6-31G                selected for orbital group  1
 Library entry LI     P 6-31G                selected for orbital group  1


 PROGRAM * SEWARD (Integral evaluation for generally contracted gaussian basis sets)     Author: Roland Lindh, 1990

 Geometry written to block  1 of record 700


 Point group  D2h 



 ATOMIC COORDINATES

 NR  ATOM    CHARGE       X              Y              Z

   1  LI1     3.00    2.834589187    2.834589187    2.834589187
   2  LI2     3.00   -2.834589187   -2.834589187    2.834589187
   3  LI3     3.00    2.834589187   -2.834589187    2.834589187
   4  LI4     3.00   -2.834589187    2.834589187    2.834589187
   5  LI5     3.00    2.834589187    2.834589187   -2.834589187
   6  LI6     3.00   -2.834589187   -2.834589187   -2.834589187
   7  LI7     3.00    2.834589187   -2.834589187   -2.834589187
   8  LI8     3.00   -2.834589187    2.834589187   -2.834589187

 Bond lengths in Bohr (Angstrom)

 1-3  5.669178374  1-4  5.669178374  1-5  5.669178374  2-3  5.669178374  2-4  5.669178374
     ( 3.000000000)     ( 3.000000000)     ( 3.000000000)     ( 3.000000000)     ( 3.000000000)

 2-6  5.669178374  3-7  5.669178374  4-8  5.669178374  5-7  5.669178374  5-8  5.669178374
     ( 3.000000000)     ( 3.000000000)     ( 3.000000000)     ( 3.000000000)     ( 3.000000000)

 6-7  5.669178374  6-8  5.669178374
     ( 3.000000000)     ( 3.000000000)

 Bond angles

  1-3-2   90.00000000   1-3-7   90.00000000   1-4-2   90.00000000   1-4-8   90.00000000

  1-5-7   90.00000000   1-5-8   90.00000000   2-3-7   90.00000000   2-4-8   90.00000000

  2-6-7   90.00000000   2-6-8   90.00000000   3-1-4   90.00000000   3-1-5   90.00000000

  3-2-4   90.00000000   3-2-6   90.00000000   3-7-5   90.00000000   3-7-6   90.00000000

  4-1-5   90.00000000   4-2-6   90.00000000   4-8-5   90.00000000   4-8-6   90.00000000

  5-7-6   90.00000000   5-8-6   90.00000000   7-5-8   90.00000000   7-6-8   90.00000000


 BASIS DATA

   Nr Sym  Nuc  Type         Exponents   Contraction coefficients

    1.1 Ag    1  1s         642.418910     0.002143
              2  1s          96.798515     0.016209
              3  1s          22.091121     0.077316
              4  1s           6.201070     0.245786
              5  1s           1.935118     0.470189
              6  1s           0.636736     0.345471
              7  1s    
              8  1s    
    2.1 Ag    1  1s           2.324918    -0.035092
              2  1s           0.632430    -0.191233
              3  1s           0.079053     1.083988
              4  1s    
              5  1s    
              6  1s    
              7  1s    
              8  1s    
    3.1 Ag    1  1s           0.035962     1.000000
              2  1s    
              3  1s    
              4  1s    
              5  1s    
              6  1s    
              7  1s    
              8  1s    
    4.1 Ag    1  2px          2.324918     0.008942
              2 -2px          0.632430     0.141009
              3  2px          0.079053     0.945364
              4 -2px   
              5  2px   
              6 -2px   
              7  2px   
              8 -2px   
    5.1 Ag    1  2py          2.324918     0.008942
              2 -2py          0.632430     0.141009
              3 -2py          0.079053     0.945364
              4  2py   
              5  2py   
              6 -2py   
              7 -2py   
              8  2py   
    6.1 Ag    1  2pz          2.324918     0.008942
              2  2pz          0.632430     0.141009
              3  2pz          0.079053     0.945364
              4  2pz   
              5 -2pz   
              6 -2pz   
              7 -2pz   
              8 -2pz   
    7.1 Ag    1  2px          0.035962     1.000000
              2 -2px   
              3  2px   
              4 -2px   
              5  2px   
              6 -2px   
              7  2px   
              8 -2px   
    8.1 Ag    1  2py          0.035962     1.000000
              2 -2py   
              3 -2py   
              4  2py   
              5  2py   
              6 -2py   
              7 -2py   
              8  2py   
    9.1 Ag    1  2pz          0.035962     1.000000
              2  2pz   
              3  2pz   
              4  2pz   
              5 -2pz   
              6 -2pz   
              7 -2pz   
              8 -2pz   
    1.2 B3u   1  1s         642.418910     0.002143
              2 -1s          96.798515     0.016209
              3  1s          22.091121     0.077316
              4 -1s           6.201070     0.245786
              5  1s           1.935118     0.470189
              6 -1s           0.636736     0.345471
              7  1s    
              8 -1s    
    2.2 B3u   1  1s           2.324918    -0.035092
              2 -1s           0.632430    -0.191233
              3  1s           0.079053     1.083988
              4 -1s    
              5  1s    
              6 -1s    
              7  1s    
              8 -1s    
    3.2 B3u   1  1s           0.035962     1.000000
              2 -1s    
              3  1s    
              4 -1s    
              5  1s    
              6 -1s    
              7  1s    
              8 -1s    
    4.2 B3u   1  2px          2.324918     0.008942
              2  2px          0.632430     0.141009
              3  2px          0.079053     0.945364
              4  2px   
              5  2px   
              6  2px   
              7  2px   
              8  2px   
    5.2 B3u   1  2py          2.324918     0.008942
              2  2py          0.632430     0.141009
              3 -2py          0.079053     0.945364
              4 -2py   
              5  2py   
              6  2py   
              7 -2py   
              8 -2py   
    6.2 B3u   1  2pz          2.324918     0.008942
              2 -2pz          0.632430     0.141009
              3  2pz          0.079053     0.945364
              4 -2pz   
              5 -2pz   
              6  2pz   
              7 -2pz   
              8  2pz   
    7.2 B3u   1  2px          0.035962     1.000000
              2  2px   
              3  2px   
              4  2px   
              5  2px   
              6  2px   
              7  2px   
              8  2px   
    8.2 B3u   1  2py          0.035962     1.000000
              2  2py   
              3 -2py   
              4 -2py   
              5  2py   
              6  2py   
              7 -2py   
              8 -2py   
    9.2 B3u   1  2pz          0.035962     1.000000
              2 -2pz   
              3  2pz   
              4 -2pz   
              5 -2pz   
              6  2pz   
              7 -2pz   
              8  2pz   
    1.3 B2u   1  1s         642.418910     0.002143
              2 -1s          96.798515     0.016209
              3 -1s          22.091121     0.077316
              4  1s           6.201070     0.245786
              5  1s           1.935118     0.470189
              6 -1s           0.636736     0.345471
              7 -1s    
              8  1s    
    2.3 B2u   1  1s           2.324918    -0.035092
              2 -1s           0.632430    -0.191233
              3 -1s           0.079053     1.083988
              4  1s    
              5  1s    
              6 -1s    
              7 -1s    
              8  1s    
    3.3 B2u   1  1s           0.035962     1.000000
              2 -1s    
              3 -1s    
              4  1s    
              5  1s    
              6 -1s    
              7 -1s    
              8  1s    
    4.3 B2u   1  2py          2.324918     0.008942
              2  2py          0.632430     0.141009
              3  2py          0.079053     0.945364
              4  2py   
              5  2py   
              6  2py   
              7  2py   
              8  2py   
    5.3 B2u   1  2px          2.324918     0.008942
              2  2px          0.632430     0.141009
              3 -2px          0.079053     0.945364
              4 -2px   
              5  2px   
              6  2px   
              7 -2px   
              8 -2px   
    6.3 B2u   1  2pz          2.324918     0.008942
              2 -2pz          0.632430     0.141009
              3 -2pz          0.079053     0.945364
              4  2pz   
              5 -2pz   
              6  2pz   
              7  2pz   
              8 -2pz   
    7.3 B2u   1  2py          0.035962     1.000000
              2  2py   
              3  2py   
              4  2py   
              5  2py   
              6  2py   
              7  2py   
              8  2py   
    8.3 B2u   1  2px          0.035962     1.000000
              2  2px   
              3 -2px   
              4 -2px   
              5  2px   
              6  2px   
              7 -2px   
              8 -2px   
    9.3 B2u   1  2pz          0.035962     1.000000
              2 -2pz   
              3 -2pz   
              4  2pz   
              5 -2pz   
              6  2pz   
              7  2pz   
              8 -2pz   
    1.4 B1g   1  1s         642.418910     0.002143
              2  1s          96.798515     0.016209
              3 -1s          22.091121     0.077316
              4 -1s           6.201070     0.245786
              5  1s           1.935118     0.470189
              6  1s           0.636736     0.345471
              7 -1s    
              8 -1s    
    2.4 B1g   1  1s           2.324918    -0.035092
              2  1s           0.632430    -0.191233
              3 -1s           0.079053     1.083988
              4 -1s    
              5  1s    
              6  1s    
              7 -1s    
              8 -1s    
    3.4 B1g   1  1s           0.035962     1.000000
              2  1s    
              3 -1s    
              4 -1s    
              5  1s    
              6  1s    
              7 -1s    
              8 -1s    
    4.4 B1g   1  2py          2.324918     0.008942
              2 -2py          0.632430     0.141009
              3  2py          0.079053     0.945364
              4 -2py   
              5  2py   
              6 -2py   
              7  2py   
              8 -2py   
    5.4 B1g   1  2px          2.324918     0.008942
              2 -2px          0.632430     0.141009
              3 -2px          0.079053     0.945364
              4  2px   
              5  2px   
              6 -2px   
              7 -2px   
              8  2px   
    6.4 B1g   1  2pz          2.324918     0.008942
              2  2pz          0.632430     0.141009
              3 -2pz          0.079053     0.945364
              4 -2pz   
              5 -2pz   
              6 -2pz   
              7  2pz   
              8  2pz   
    7.4 B1g   1  2py          0.035962     1.000000
              2 -2py   
              3  2py   
              4 -2py   
              5  2py   
              6 -2py   
              7  2py   
              8 -2py   
    8.4 B1g   1  2px          0.035962     1.000000
              2 -2px   
              3 -2px   
              4  2px   
              5  2px   
              6 -2px   
              7 -2px   
              8  2px   
    9.4 B1g   1  2pz          0.035962     1.000000
              2  2pz   
              3 -2pz   
              4 -2pz   
              5 -2pz   
              6 -2pz   
              7  2pz   
              8  2pz   
    1.5 B1u   1  1s         642.418910     0.002143
              2  1s          96.798515     0.016209
              3  1s          22.091121     0.077316
              4  1s           6.201070     0.245786
              5 -1s           1.935118     0.470189
              6 -1s           0.636736     0.345471
              7 -1s    
              8 -1s    
    2.5 B1u   1  1s           2.324918    -0.035092
              2  1s           0.632430    -0.191233
              3  1s           0.079053     1.083988
              4  1s    
              5 -1s    
              6 -1s    
              7 -1s    
              8 -1s    
    3.5 B1u   1  1s           0.035962     1.000000
              2  1s    
              3  1s    
              4  1s    
              5 -1s    
              6 -1s    
              7 -1s    
              8 -1s    
    4.5 B1u   1  2pz          2.324918     0.008942
              2  2pz          0.632430     0.141009
              3  2pz          0.079053     0.945364
              4  2pz   
              5  2pz   
              6  2pz   
              7  2pz   
              8  2pz   
    5.5 B1u   1  2px          2.324918     0.008942
              2 -2px          0.632430     0.141009
              3  2px          0.079053     0.945364
              4 -2px   
              5 -2px   
              6  2px   
              7 -2px   
              8  2px   
    6.5 B1u   1  2py          2.324918     0.008942
              2 -2py          0.632430     0.141009
              3 -2py          0.079053     0.945364
              4  2py   
              5 -2py   
              6  2py   
              7  2py   
              8 -2py   
    7.5 B1u   1  2pz          0.035962     1.000000
              2  2pz   
              3  2pz   
              4  2pz   
              5  2pz   
              6  2pz   
              7  2pz   
              8  2pz   
    8.5 B1u   1  2px          0.035962     1.000000
              2 -2px   
              3  2px   
              4 -2px   
              5 -2px   
              6  2px   
              7 -2px   
              8  2px   
    9.5 B1u   1  2py          0.035962     1.000000
              2 -2py   
              3 -2py   
              4  2py   
              5 -2py   
              6  2py   
              7  2py   
              8 -2py   
    1.6 B2g   1  1s         642.418910     0.002143
              2 -1s          96.798515     0.016209
              3  1s          22.091121     0.077316
              4 -1s           6.201070     0.245786
              5 -1s           1.935118     0.470189
              6  1s           0.636736     0.345471
              7 -1s    
              8  1s    
    2.6 B2g   1  1s           2.324918    -0.035092
              2 -1s           0.632430    -0.191233
              3  1s           0.079053     1.083988
              4 -1s    
              5 -1s    
              6  1s    
              7 -1s    
              8  1s    
    3.6 B2g   1  1s           0.035962     1.000000
              2 -1s    
              3  1s    
              4 -1s    
              5 -1s    
              6  1s    
              7 -1s    
              8  1s    
    4.6 B2g   1  2pz          2.324918     0.008942
              2 -2pz          0.632430     0.141009
              3  2pz          0.079053     0.945364
              4 -2pz   
              5  2pz   
              6 -2pz   
              7  2pz   
              8 -2pz   
    5.6 B2g   1  2px          2.324918     0.008942
              2  2px          0.632430     0.141009
              3  2px          0.079053     0.945364
              4  2px   
              5 -2px   
              6 -2px   
              7 -2px   
              8 -2px   
    6.6 B2g   1  2py          2.324918     0.008942
              2  2py          0.632430     0.141009
              3 -2py          0.079053     0.945364
              4 -2py   
              5 -2py   
              6 -2py   
              7  2py   
              8  2py   
    7.6 B2g   1  2pz          0.035962     1.000000
              2 -2pz   
              3  2pz   
              4 -2pz   
              5  2pz   
              6 -2pz   
              7  2pz   
              8 -2pz   
    8.6 B2g   1  2px          0.035962     1.000000
              2  2px   
              3  2px   
              4  2px   
              5 -2px   
              6 -2px   
              7 -2px   
              8 -2px   
    9.6 B2g   1  2py          0.035962     1.000000
              2  2py   
              3 -2py   
              4 -2py   
              5 -2py   
              6 -2py   
              7  2py   
              8  2py   
    1.7 B3g   1  1s         642.418910     0.002143
              2 -1s          96.798515     0.016209
              3 -1s          22.091121     0.077316
              4  1s           6.201070     0.245786
              5 -1s           1.935118     0.470189
              6  1s           0.636736     0.345471
              7  1s    
              8 -1s    
    2.7 B3g   1  1s           2.324918    -0.035092
              2 -1s           0.632430    -0.191233
              3 -1s           0.079053     1.083988
              4  1s    
              5 -1s    
              6  1s    
              7  1s    
              8 -1s    
    3.7 B3g   1  1s           0.035962     1.000000
              2 -1s    
              3 -1s    
              4  1s    
              5 -1s    
              6  1s    
              7  1s    
              8 -1s    
    4.7 B3g   1  2pz          2.324918     0.008942
              2 -2pz          0.632430     0.141009
              3 -2pz          0.079053     0.945364
              4  2pz   
              5  2pz   
              6 -2pz   
              7 -2pz   
              8  2pz   
    5.7 B3g   1  2py          2.324918     0.008942
              2  2py          0.632430     0.141009
              3  2py          0.079053     0.945364
              4  2py   
              5 -2py   
              6 -2py   
              7 -2py   
              8 -2py   
    6.7 B3g   1  2px          2.324918     0.008942
              2  2px          0.632430     0.141009
              3 -2px          0.079053     0.945364
              4 -2px   
              5 -2px   
              6 -2px   
              7  2px   
              8  2px   
    7.7 B3g   1  2pz          0.035962     1.000000
              2 -2pz   
              3 -2pz   
              4  2pz   
              5  2pz   
              6 -2pz   
              7 -2pz   
              8  2pz   
    8.7 B3g   1  2py          0.035962     1.000000
              2  2py   
              3  2py   
              4  2py   
              5 -2py   
              6 -2py   
              7 -2py   
              8 -2py   
    9.7 B3g   1  2px          0.035962     1.000000
              2  2px   
              3 -2px   
              4 -2px   
              5 -2px   
              6 -2px   
              7  2px   
              8  2px   
    1.8 Au    1  1s         642.418910     0.002143
              2  1s          96.798515     0.016209
              3 -1s          22.091121     0.077316
              4 -1s           6.201070     0.245786
              5 -1s           1.935118     0.470189
              6 -1s           0.636736     0.345471
              7  1s    
              8  1s    
    2.8 Au    1  1s           2.324918    -0.035092
              2  1s           0.632430    -0.191233
              3 -1s           0.079053     1.083988
              4 -1s    
              5 -1s    
              6 -1s    
              7  1s    
              8  1s    
    3.8 Au    1  1s           0.035962     1.000000
              2  1s    
              3 -1s    
              4 -1s    
              5 -1s    
              6 -1s    
              7  1s    
              8  1s    
    4.8 Au    1  2pz          2.324918     0.008942
              2  2pz          0.632430     0.141009
              3 -2pz          0.079053     0.945364
              4 -2pz   
              5  2pz   
              6  2pz   
              7 -2pz   
              8 -2pz   
    5.8 Au    1  2py          2.324918     0.008942
              2 -2py          0.632430     0.141009
              3  2py          0.079053     0.945364
              4 -2py   
              5 -2py   
              6  2py   
              7 -2py   
              8  2py   
    6.8 Au    1  2px          2.324918     0.008942
              2 -2px          0.632430     0.141009
              3 -2px          0.079053     0.945364
              4  2px   
              5 -2px   
              6  2px   
              7  2px   
              8 -2px   
    7.8 Au    1  2pz          0.035962     1.000000
              2  2pz   
              3 -2pz   
              4 -2pz   
              5  2pz   
              6  2pz   
              7 -2pz   
              8 -2pz   
    8.8 Au    1  2py          0.035962     1.000000
              2 -2py   
              3  2py   
              4 -2py   
              5 -2py   
              6  2py   
              7 -2py   
              8  2py   
    9.8 Au    1  2px          0.035962     1.000000
              2 -2px   
              3 -2px   
              4  2px   
              5 -2px   
              6  2px   
              7  2px   
              8 -2px   

 NUCLEAR CHARGE:                   24
 NUMBER OF PRIMITIVE AOS:         176
 NUMBER OF SYMMETRY AOS:          176
 NUMBER OF CONTRACTIONS:           72   (    9Ag  +    9B3u +    9B2u +    9B1g +    9B1u +    9B2g +    9B3g +    9Au  )
 NUMBER OF CORE ORBITALS:           8   (    1Ag  +    1B3u +    1B2u +    1B1g +    1B1u +    1B2g +    1B3g +    1Au  )
 NUMBER OF VALENCE ORBITALS:       32   (    4Ag  +    4B3u +    4B2u +    4B1g +    4B1u +    4B2g +    4B3g +    4Au  )


 NUCLEAR REPULSION ENERGY   36.18727945

 Eigenvalues of metric

         1 0.236E-01 0.207E+00 0.293E+00 0.293E+00 0.956E+00 0.241E+01 0.382E+01 0.382E+01
         2 0.451E-02 0.101E+00 0.150E+00 0.186E+00 0.354E+00 0.968E+00 0.153E+01 0.162E+01
         3 0.451E-02 0.101E+00 0.150E+00 0.186E+00 0.354E+00 0.968E+00 0.153E+01 0.162E+01
         4 0.775E-03 0.268E-01 0.539E-01 0.110E+00 0.172E+00 0.338E+00 0.796E+00 0.964E+00
         5 0.451E-02 0.101E+00 0.150E+00 0.186E+00 0.354E+00 0.968E+00 0.153E+01 0.162E+01
         6 0.775E-03 0.268E-01 0.539E-01 0.110E+00 0.172E+00 0.338E+00 0.796E+00 0.964E+00
         7 0.775E-03 0.268E-01 0.539E-01 0.110E+00 0.172E+00 0.338E+00 0.796E+00 0.964E+00
         8 0.161E-03 0.932E-02 0.932E-02 0.480E-01 0.104E+00 0.201E+00 0.201E+00 0.930E+00


 Contracted 2-electron integrals neglected if value below      1.0D-11
 AO integral compression algorithm  1   Integral accuracy      1.0D-11

     8.126 MB (compressed) written to integral file ( 57.9%)


 NUMBER OF SORTED TWO-ELECTRON INTEGRALS:     453942.     BUFFER LENGTH:  32768
 NUMBER OF SEGMENTS:   1  SEGMENT LENGTH:     453942      RECORD LENGTH: 524288

 Memory used in sort:       1.01 MW

 SORT1 READ     1783296. AND WROTE      453942. INTEGRALS IN      2 RECORDS. CPU TIME:     0.05 SEC, REAL TIME:     0.06 SEC
 SORT2 READ      453942. AND WROTE      453942. INTEGRALS IN     31 RECORDS. CPU TIME:     0.09 SEC, REAL TIME:     0.11 SEC

 FILE SIZES:   FILE 1:    38.3 MBYTE,  FILE 4:     8.4 MBYTE,   TOTAL:     46.8 MBYTE

 OPERATOR DM      FOR CENTER  0  COORDINATES:    0.000000    0.000000    0.000000


 **********************************************************************************************************************************
 DATASETS  * FILE   NREC   LENGTH (MB)   RECORD NAMES
              1      19       32.37       500      610      700      900      950      970     1000      129      960     1100   
                                          VAR    BASINP    GEOM    SYMINP    ZMAT    AOBASIS   BASIS     P2S    ABASIS      S 
                                         1400     1410     1200     1210     1080     1600     1650     1300     1700   
                                           T        V       H0       H01     AOSYM     SMH    MOLCAS    ERIS     OPER   

              3       4       12.42       500      610      700     1000   
                                          VAR    BASINP    GEOM     BASIS   

 PROGRAMS   *        TOTAL       INT      FILE
 CPU TIMES  *         0.89      0.77      0.00
 REAL TIME  *         1.07 SEC
 DISK USED  *        59.55 MB
 **********************************************************************************************************************************


 PROGRAM * RHF-SCF (CLOSED SHELL)       Authors: W. Meyer, H.-J. Werner


 NUMBER OF ELECTRONS:      12+   12-    SPACE SYMMETRY=1    SPIN SYMMETRY: Singlet 
 CONVERGENCE THRESHOLDS:    1.00E-05 (Density)    1.00E-07 (Energy)
 MAX. NUMBER OF ITERATIONS:       60
 INTERPOLATION TYPE:            DIIS
 INTERPOLATION STEPS:              2 (START)      1 (STEP)
 LEVEL SHIFTS:                  0.00 (CLOSED)  0.00 (OPEN) 




   Atom=LI basis=MINAO             lmin=0  lmax=0

 Orbital guess generated from atomic densities. Full valence occupancy:    2   2   2   2   2   2   2   2


 Molecular orbital dump at record        2100.3

 Initial occupancy:   2   2   2   1   2   1   1   1

 ITERATION    DDIFF          GRAD             ENERGY        2-EL.EN.            DIPOLE MOMENTS         DIIS   ORB.
    1      0.000D+00      0.000D+00       -59.50657368    110.458575    0.00000    0.00000    0.00000    0    start
    2      0.000D+00      0.369D-02       -59.51218723    109.987492    0.00000    0.00000    0.00000    1    diag
    3      0.183D-01      0.102D-02       -59.51306046    110.101268    0.00000    0.00000    0.00000    2    diag
    4      0.449D-02      0.408D-03       -59.51321109    110.060492    0.00000    0.00000    0.00000    3    diag
    5      0.307D-02      0.663D-04       -59.51321461    110.064265    0.00000    0.00000    0.00000    4    diag
    6      0.484D-03      0.525D-05       -59.51321462    110.063811    0.00000    0.00000    0.00000    5    diag
    7      0.457D-04      0.484D-06       -59.51321462    110.063832    0.00000    0.00000    0.00000    6    diag
    8      0.264D-05      0.120D-06       -59.51321462    110.063827    0.00000    0.00000    0.00000    0    orth

 Final occupancy:   2   2   2   1   2   1   1   1

 !RHF STATE  1.1 Energy               -59.513214624826
 Nuclear energy                        36.18727945
 One-electron energy                 -150.73240747
 Two-electron energy                   55.03191340
 Virial quotient                       -0.99665416
 !RHF STATE  1.1 Dipole moment          0.00000000     0.00000000     0.00000000
 Dipole moment /Debye                   0.00000000     0.00000000     0.00000000

 MOLECULAR ORBITALS
 ==================

   Orb  Occ    Energy       Coefficients

                            1 1s      1 1s      1 1s      1 2px     1 2py     1 2pz     1 2px     1 2py     1 2pz  

   1.1   2    -2.4461     0.998954  0.019738 -0.008152  0.000333  0.000333  0.000333  0.000575  0.000575  0.000575

   2.1   2    -0.2715    -0.196556  0.418320  0.202269 -0.105908 -0.105908 -0.105908  0.060989  0.060989  0.060989

   3.1   0     0.0139    -0.000000 -0.000000  0.000000 -0.113113 -0.106684  0.219797 -0.189707 -0.178924  0.368631

   4.1   0     0.0139     0.000000  0.000000 -0.000000  0.188494 -0.192206  0.003712  0.316131 -0.322356  0.006226

   5.1   0     0.0197    -0.002128 -0.115988  0.586143  0.093671  0.093671  0.093671  0.292116  0.292116  0.292116

   6.1   0     0.1697     0.000000 -0.000000  0.000000  0.388763 -1.077634  0.688870 -0.368815  1.022336 -0.653522

   7.1   0     0.1697    -0.000000  0.000000 -0.000000  1.019891 -0.173267 -0.846625 -0.967557  0.164376  0.803181

   8.1   0     0.1775    -0.085257  0.492233 -0.701932  0.837183  0.837183  0.837183 -0.769226 -0.769226 -0.769226

   9.1   0     0.6558     0.599416  5.052944 -2.835927 -0.928073 -0.928073 -0.928073  1.384381  1.384381  1.384381

                            1 1s      1 1s      1 1s      1 2px     1 2py     1 2pz     1 2px     1 2py     1 2pz  

   1.2   2    -2.4460     0.999703  0.023220 -0.022962  0.000168  0.000762  0.000762  0.006554  0.000503  0.000503

   2.2   2    -0.1651    -0.175639  0.393832  0.081737  0.148498 -0.159293 -0.159293  0.235366  0.060490  0.060490

   3.2   0     0.0658     0.058846 -0.028923 -0.252471 -0.117925  0.082795  0.082795  0.850491  0.714162  0.714162

   4.2   0     0.0802    -0.000000 -0.000000  0.000000  0.000000  0.109099 -0.109099 -0.000000  0.794674 -0.794674

   5.2   0     0.1092    -0.149598  0.063674  3.056767  0.198909 -0.052896 -0.052896 -2.099625  0.439583  0.439583

   6.2   0     0.2095    -0.068760  0.114220  0.243018  0.547800  1.044934  1.044934 -0.777707 -1.260967 -1.260967

   7.2   0     0.2103    -0.000000  0.000000  0.000000  0.000000  1.091694 -1.091694 -0.000000 -1.342095  1.342095

   8.2   0     0.3231     0.053184 -0.734838  1.019687  2.044410 -0.490063 -0.490063 -1.180521  0.757528  0.757528

   9.2   0     0.7743    -0.761101 -5.972389 12.036483 -0.539539  0.585668  0.585668 -4.690697 -1.572217 -1.572217

                            1 1s      1 1s      1 1s      1 2py     1 2px     1 2pz     1 2py     1 2px     1 2pz  

   1.3   2    -2.4460     0.999703  0.023220 -0.022962  0.000168  0.000762  0.000762  0.006554  0.000503  0.000503

   2.3   2    -0.1651    -0.175639  0.393832  0.081737  0.148498 -0.159293 -0.159293  0.235366  0.060490  0.060490

   3.3   0     0.0658     0.058846 -0.028923 -0.252471 -0.117925  0.082795  0.082795  0.850491  0.714162  0.714162

   4.3   0     0.0802    -0.000000 -0.000000  0.000000  0.000000  0.109099 -0.109099 -0.000000  0.794674 -0.794674

   5.3   0     0.1092    -0.149598  0.063674  3.056767  0.198909 -0.052896 -0.052896 -2.099625  0.439583  0.439583

   6.3   0     0.2095    -0.068760  0.114220  0.243018  0.547800  1.044934  1.044934 -0.777707 -1.260967 -1.260967

   7.3   0     0.2103    -0.000000  0.000000  0.000000  0.000000  1.091694 -1.091694 -0.000000 -1.342095  1.342095

   8.3   0     0.3231     0.053184 -0.734838  1.019687  2.044410 -0.490063 -0.490063 -1.180521  0.757528  0.757528

   9.3   0     0.7743    -0.761101 -5.972389 12.036483 -0.539539  0.585668  0.585668 -4.690697 -1.572217 -1.572217

                            1 1s      1 1s      1 1s      1 2py     1 2px     1 2pz     1 2py     1 2px     1 2pz  

   1.4   2    -2.4459     1.000542  0.027792 -0.054942  0.000755  0.000755  0.001194  0.011005  0.011005  0.000803

   2.4   0     0.0120    -0.109673  0.391090 -1.525726  0.128924  0.128924 -0.156019  0.937351  0.937351  0.222175

   3.4   0     0.1186     0.097406 -0.069942 -1.237893 -0.153406 -0.153406  0.097716  0.899123  0.899123  2.106172

   4.4   0     0.1459    -0.000000 -0.000000  0.000000 -0.064703  0.064703 -0.000000  3.056649 -3.056649  0.000000

   5.4   0     0.1518    -0.211860  0.097608  6.941006  0.354083  0.354083 -0.136327 -2.566599 -2.566599  1.162769

   6.4   0     0.2565    -0.037965  0.019697  0.706209  0.284116  0.284116  1.769670 -0.581588 -0.581588 -2.819212

   7.4   0     0.3504    -0.000000 -0.000000  0.000000  1.775727 -1.775727 -0.000000 -2.761835  2.761835  0.000000

   8.4   0     0.4372     0.099879 -1.102697 -2.088124  1.839726  1.839726 -0.556171 -0.064031 -0.064031  1.276234

   9.4   0     1.0748    -0.987652 -7.354643 32.251531 -0.765793 -0.765793  0.430338 -7.804747 -7.804747 -2.195206

                            1 1s      1 1s      1 1s      1 2pz     1 2px     1 2py     1 2pz     1 2px     1 2py  

   1.5   2    -2.4460     0.999703  0.023220 -0.022962  0.000168  0.000762  0.000762  0.006554  0.000503  0.000503

   2.5   2    -0.1651    -0.175639  0.393832  0.081737  0.148498 -0.159293 -0.159293  0.235366  0.060490  0.060490

   3.5   0     0.0658     0.058846 -0.028923 -0.252471 -0.117925  0.082795  0.082795  0.850491  0.714162  0.714162

   4.5   0     0.0802     0.000000  0.000000 -0.000000 -0.000000  0.109099 -0.109099  0.000000  0.794674 -0.794674

   5.5   0     0.1092    -0.149598  0.063674  3.056767  0.198909 -0.052896 -0.052896 -2.099625  0.439583  0.439583

   6.5   0     0.2095    -0.068760  0.114220  0.243018  0.547800  1.044934  1.044934 -0.777707 -1.260967 -1.260967

   7.5   0     0.2103    -0.000000 -0.000000  0.000000  0.000000  1.091694 -1.091694 -0.000000 -1.342095  1.342095

   8.5   0     0.3231     0.053184 -0.734838  1.019687  2.044410 -0.490063 -0.490063 -1.180521  0.757528  0.757528

   9.5   0     0.7743    -0.761101 -5.972389 12.036483 -0.539539  0.585668  0.585668 -4.690697 -1.572217 -1.572217

                            1 1s      1 1s      1 1s      1 2pz     1 2px     1 2py     1 2pz     1 2px     1 2py  

   1.6   2    -2.4459     1.000542  0.027792 -0.054942  0.000755  0.000755  0.001194  0.011005  0.011005  0.000803

   2.6   0     0.0120    -0.109673  0.391090 -1.525726  0.128924  0.128924 -0.156019  0.937351  0.937351  0.222175

   3.6   0     0.1186     0.097406 -0.069942 -1.237893 -0.153406 -0.153406  0.097716  0.899123  0.899123  2.106172

   4.6   0     0.1459    -0.000000 -0.000000  0.000000 -0.064703  0.064703 -0.000000  3.056649 -3.056649  0.000000

   5.6   0     0.1518    -0.211860  0.097608  6.941006  0.354083  0.354083 -0.136327 -2.566599 -2.566599  1.162769

   6.6   0     0.2565    -0.037965  0.019697  0.706209  0.284116  0.284116  1.769670 -0.581588 -0.581588 -2.819212

   7.6   0     0.3504     0.000000  0.000000 -0.000000  1.775727 -1.775727 -0.000000 -2.761835  2.761835  0.000000

   8.6   0     0.4372     0.099879 -1.102697 -2.088124  1.839726  1.839726 -0.556171 -0.064031 -0.064031  1.276234

   9.6   0     1.0748    -0.987652 -7.354643 32.251531 -0.765793 -0.765793  0.430338 -7.804747 -7.804747 -2.195206

                            1 1s      1 1s      1 1s      1 2pz     1 2py     1 2px     1 2pz     1 2py     1 2px  

   1.7   2    -2.4459     1.000542  0.027792 -0.054942  0.000755  0.000755  0.001194  0.011005  0.011005  0.000803

   2.7   0     0.0120    -0.109673  0.391090 -1.525726  0.128924  0.128924 -0.156019  0.937351  0.937351  0.222175

   3.7   0     0.1186     0.097406 -0.069942 -1.237893 -0.153406 -0.153406  0.097716  0.899123  0.899123  2.106172

   4.7   0     0.1459     0.000000  0.000000 -0.000000 -0.064703  0.064703  0.000000  3.056649 -3.056649 -0.000000

   5.7   0     0.1518    -0.211860  0.097608  6.941006  0.354083  0.354083 -0.136327 -2.566599 -2.566599  1.162769

   6.7   0     0.2565    -0.037965  0.019697  0.706209  0.284116  0.284116  1.769670 -0.581588 -0.581588 -2.819212

   7.7   0     0.3504    -0.000000 -0.000000  0.000000  1.775727 -1.775727 -0.000000 -2.761835  2.761835 -0.000000

   8.7   0     0.4372     0.099879 -1.102697 -2.088124  1.839726  1.839726 -0.556171 -0.064031 -0.064031  1.276234

   9.7   0     1.0748    -0.987652 -7.354643 32.251531 -0.765793 -0.765793  0.430338 -7.804747 -7.804747 -2.195206

                            1 1s      1 1s      1 1s      1 2pz     1 2py     1 2px     1 2pz     1 2py     1 2px  

   1.8   2    -2.4458     1.001322  0.031973 -0.116619  0.001602  0.001602  0.001602  0.018008  0.018008  0.018008

   2.8   0     0.0669    -0.043853  0.355785 -6.271513  0.103974  0.103974  0.103974  2.057013  2.057013  2.057013

   3.8   0     0.1826    -0.000000 -0.000000  0.000000 -0.086516  0.106861 -0.020345  5.088963 -6.285695  1.196732

   4.8   0     0.1826     0.000000  0.000000 -0.000000  0.073442  0.038203 -0.111646 -4.319981 -2.247181  6.567162

   5.8   0     0.1993    -0.266545  0.150935 13.431727  0.476794  0.476794  0.476794 -3.522279 -3.522279 -3.522279

   6.8   0     0.4140    -0.000000 -0.000000  0.000000 -1.403748  2.376592 -0.972844  2.909319 -4.925573  2.016255

   7.8   0     0.4140    -0.000000 -0.000000  0.000000 -1.933798 -0.248782  2.182580  4.007866  0.515611 -4.523477

   8.8   0     0.6075    -0.154976  1.429327 14.836975 -2.018181 -2.018181 -2.018181 -2.037300 -2.037300 -2.037300

   9.8   0     1.4304    -1.186419 -8.844896 71.720110 -0.784947 -0.784947 -0.784947-12.786232-12.786232-12.786232


 HOMO      2.2    -0.165148 =      -4.4939eV
 LUMO      2.4     0.012040 =       0.3276eV
 LUMO-HOMO         0.177189 =       4.8215eV


 **********************************************************************************************************************************
 DATASETS  * FILE   NREC   LENGTH (MB)   RECORD NAMES
              1      19       32.37       500      610      700      900      950      970     1000      129      960     1100   
                                          VAR    BASINP    GEOM    SYMINP    ZMAT    AOBASIS   BASIS     P2S    ABASIS      S 
                                         1400     1410     1200     1210     1080     1600     1650     1300     1700   
                                           T        V       H0       H01     AOSYM     SMH    MOLCAS    ERIS     OPER   

              3       5       14.92       500      610      700     1000     2100   
                                          VAR    BASINP    GEOM     BASIS     RHF  

 PROGRAMS   *        TOTAL   RHF-SCF       INT      FILE
 CPU TIMES  *         1.08      0.19      0.77      0.00
 REAL TIME  *         1.31 SEC
 DISK USED  *        59.55 MB
 **********************************************************************************************************************************

 Dump information in style XML to orbitals.xml                                                                    

 Variables will not be exported.
 Molecular orbitals read from record     2100.3  Type=RHF/CANONICAL (state 1.1)
 Occupation numbers read from record     2100.3  Type=RHF/RHF (state 1.1)
 Orbital energies read from record       2100.3  Type=RHF/CANONICAL (state 1.1)
 Redundancy group numbers read from rec  2100.3  Type=RHF/RHF (state 1.1)

 **********************************************************************************************************************************

 RHF/6-31G energy=    -59.513214624826

         RHF-SCF
    -59.51321462
 **********************************************************************************************************************************
 Molpro calculation terminated
