
 Primary working directories    : /scr/yuriaoto/job.023414/molpro.N3fTKiARTP
 Secondary working directories  : /scr/yuriaoto/job.023414/molpro.N3fTKiARTP
 Wavefunction directory         : /scr/yuriaoto/job.023414/
 Main file repository           : /scr/yuriaoto/job.023414/molpro.N3fTKiARTP/

 id        : yuriaoto

 Nodes             nprocs
 t-rex.ufabc.int.br    1

 Using customized tuning parameters: mindgm=8; mindgv=16; mindgc=1; mindgr=1; noblas=0; minvec=7
 default implementation of scratch files=df  


 Variables initialized (933), CPU time= 0.01 sec
 ***,
 memory,40,m
 gprint,orbital,basis,civector
 gthresh,thrprint=0,printci=0.0
 file,3,wfu.dat,old
 
 {ccsd,CC_NORM_MAX=10000.0
 thresh,printci=0.0,ENERGY=1.0E-10,COEFF=1.0E-12
 print,ref=1
 wf,16,1,0;
 }
 
 Commands  initialized (760), CPU time= 0.01 sec, 617 directives.
 Default parameters read. Elapsed time= 0.04 sec

 Checking input...
 Passed
1


                                         ***  PROGRAM SYSTEM MOLPRO  ***
                                       Copyright, TTI GmbH Stuttgart, 2015
                                    Version 2019.2 linked Abr  7 2019 15:10:35


 **********************************************************************************************************************************
 LABEL *                                                                                 
  64 bit serial version                                                                  DATE: 02-Jun-20          TIME: 00:24:53  
 **********************************************************************************************************************************

 SHA1:             3a8a58c585c929645742fb5a1b7541a4ad1da699
 **********************************************************************************************************************************


 THRESHOLDS:

 ZERO    =  1.00D-12  ONEINT  =  1.00D-12  TWOINT  =  1.00D-11  PREFAC  =  1.00D-14  XXXXXX  =  1.00D-09  EORDER  =  1.00D-04
 ENERGY  =  0.00D+00  ETEST   =  0.00D+00  EDENS   =  0.00D+00  THRDEDEF=  1.00D-06  GRADIENT=  1.00D-02  STEP    =  1.00D-03
 ORBITAL =  1.00D-05  CIVEC   =  1.00D-05  COEFF   =  1.00D-04  PRINTCI =  0.00D+00  PUNCHCI =  9.90D+01  OPTGRAD =  3.00D-04
 OPTENERG=  1.00D-06  OPTSTEP =  3.00D-04  THRGRAD =  1.00D-10  COMPRESS=  1.00D-11  VARMIN  =  1.00D-07  VARMAX  =  1.00D-03
 THRDOUB =  0.00D+00  THRDIV  =  1.00D-05  THRRED  =  1.00D-07  THRPSP  =  1.00D+00  THRDC   =  1.00D-10  THRCS   =  1.00D-10
 THRNRM  =  1.00D-08  THREQ   =  0.00D+00  THRDE   =  1.00D+00  THRREF  =  1.00D-05  SPARFAC =  1.00D+00  THRDLP  =  1.00D-07
 THRDIA  =  1.00D-10  THRDLS  =  1.00D-07  THRGPS  =  0.00D+00  THRKEX  =  0.00D+00  THRDIS  =  2.00D-01  THRVAR  =  1.00D-10
 THRLOC  =  1.00D-06  THRGAP  =  1.00D-06  THRLOCT = -1.00D+00  THRGAPT = -1.00D+00  THRORB  =  1.00D-06  THRMLTP =  0.00D+00
 THRCPQCI=  1.00D-10  KEXTA   =  0.00D+00  THRCOARS=  0.00D+00  SYMTOL  =  1.00D-06  GRADTOL =  1.00D-06  THROVL  =  1.00D-08
 THRORTH =  1.00D-08  GRID    =  1.00D-06  GRIDMAX =  1.00D-03  DTMAX   =  0.00D+00  THROCCDE=  1.00D-01  THROCCDE=  1.00D-01
 THRPRINT=  0.00D+00


 Variable memory set to   40000000 words,  buffer space 



 Permanent file  3  wfu.dat  assigned.  Implementation=df    Size= 14.20 MB


 PROGRAM * RESTART 


 Reading variables from file 3

 _FNUC           =      0.00000000
 _BASIS          =    6-31G
 _NELEC          =     16.00000000
 _PROGRAM        =    RHF-SCF
 _DMZ            =      0.00000000
 _DMX_SCF        =      0.00000000
 _DMY_SCF        =      0.00000000
 _DMZ_SCF        =      0.00000000
 _HOMO           =      1.80000000
 _EHOMO          =     -0.90875643
 _LUMO           =      2.10000000
 _ELUMO          =      1.32776838
 _ENERGY         =    -22.84126352
 _ENERGY_METHOD  =    RHF
 _ENERGY_BASIS   =    6-31G
 _ENUC           =     16.08323531
 _EPS1(1:2)      =     -0.91968069     1.32776838
 _EPS2(1:2)      =     -0.91590815     1.37584569
 _EPS3(1:2)      =     -0.91590815     1.37584569
 _EPS4(1:2)      =     -0.91226826     1.42523808
 _EPS5(1:2)      =     -0.91590815     1.37584569
 _EPS6(1:2)      =     -0.91226826     1.42523808
 _EPS7(1:2)      =     -0.91226826     1.42523808
 _EPS8(1:2)      =     -0.90875643     1.47600363
 _IPROC_MPP      =      0.00000000
 _IPROC_MPPX     =      0.00000000
 _ORBITAL        =   2100.30000000
 _STATUS         =      1.00000000
 _DATE           =    23-Mar-20
 _LASTORB        =    RHF
 _OUTPUT         =    /scr/yuriaoto/job.022845/RHF.xml
 _PGROUP         =    D2h 
 _TIME           =    15:30:58
 R               =      1.50000000

 Geometry written to block  1 of record 700


 **********************************************************************************************************************************
 DATASETS  * FILE   NREC   LENGTH (MB)   RECORD NAMES
              3       5       14.89       500      610      700     1000     2100   
                                          VAR    BASINP    GEOM     BASIS     RHF  

 PROGRAMS   *        TOTAL   RESTART
 CPU TIMES  *         0.11      0.01
 REAL TIME  *         0.14 SEC
 DISK USED  *        26.98 MB
 **********************************************************************************************************************************


 Recomputing integrals since basis changed


 Using spherical harmonics

 Library entry HE     S 6-31G                selected for orbital group  1


 PROGRAM * SEWARD (Integral evaluation for generally contracted gaussian basis sets)     Author: Roland Lindh, 1990

 Geometry written to block  1 of record 700


 Point group  D2h 



 ATOMIC COORDINATES

 NR  ATOM    CHARGE       X              Y              Z

   1  HE1     2.00    2.834589187    2.834589187    2.834589187
   2  HE2     2.00   -2.834589187   -2.834589187    2.834589187
   3  HE3     2.00    2.834589187   -2.834589187    2.834589187
   4  HE4     2.00   -2.834589187    2.834589187    2.834589187
   5  HE5     2.00    2.834589187    2.834589187   -2.834589187
   6  HE6     2.00   -2.834589187   -2.834589187   -2.834589187
   7  HE7     2.00    2.834589187   -2.834589187   -2.834589187
   8  HE8     2.00   -2.834589187    2.834589187   -2.834589187


 BASIS DATA

   Nr Sym  Nuc  Type         Exponents   Contraction coefficients

    1.1 Ag    1  1s          38.421634     0.023766
              2  1s           5.778030     0.154679
              3  1s           1.241774     0.469630
              4  1s    
              5  1s    
              6  1s    
              7  1s    
              8  1s    
    2.1 Ag    1  1s           0.297964     1.000000
              2  1s    
              3  1s    
              4  1s    
              5  1s    
              6  1s    
              7  1s    
              8  1s    
    1.2 B3u   1  1s          38.421634     0.023766
              2 -1s           5.778030     0.154679
              3  1s           1.241774     0.469630
              4 -1s    
              5  1s    
              6 -1s    
              7  1s    
              8 -1s    
    2.2 B3u   1  1s           0.297964     1.000000
              2 -1s    
              3  1s    
              4 -1s    
              5  1s    
              6 -1s    
              7  1s    
              8 -1s    
    1.3 B2u   1  1s          38.421634     0.023766
              2 -1s           5.778030     0.154679
              3 -1s           1.241774     0.469630
              4  1s    
              5  1s    
              6 -1s    
              7 -1s    
              8  1s    
    2.3 B2u   1  1s           0.297964     1.000000
              2 -1s    
              3 -1s    
              4  1s    
              5  1s    
              6 -1s    
              7 -1s    
              8  1s    
    1.4 B1g   1  1s          38.421634     0.023766
              2  1s           5.778030     0.154679
              3 -1s           1.241774     0.469630
              4 -1s    
              5  1s    
              6  1s    
              7 -1s    
              8 -1s    
    2.4 B1g   1  1s           0.297964     1.000000
              2  1s    
              3 -1s    
              4 -1s    
              5  1s    
              6  1s    
              7 -1s    
              8 -1s    
    1.5 B1u   1  1s          38.421634     0.023766
              2  1s           5.778030     0.154679
              3  1s           1.241774     0.469630
              4  1s    
              5 -1s    
              6 -1s    
              7 -1s    
              8 -1s    
    2.5 B1u   1  1s           0.297964     1.000000
              2  1s    
              3  1s    
              4  1s    
              5 -1s    
              6 -1s    
              7 -1s    
              8 -1s    
    1.6 B2g   1  1s          38.421634     0.023766
              2 -1s           5.778030     0.154679
              3  1s           1.241774     0.469630
              4 -1s    
              5 -1s    
              6  1s    
              7 -1s    
              8  1s    
    2.6 B2g   1  1s           0.297964     1.000000
              2 -1s    
              3  1s    
              4 -1s    
              5 -1s    
              6  1s    
              7 -1s    
              8  1s    
    1.7 B3g   1  1s          38.421634     0.023766
              2 -1s           5.778030     0.154679
              3 -1s           1.241774     0.469630
              4  1s    
              5 -1s    
              6  1s    
              7  1s    
              8 -1s    
    2.7 B3g   1  1s           0.297964     1.000000
              2 -1s    
              3 -1s    
              4  1s    
              5 -1s    
              6  1s    
              7  1s    
              8 -1s    
    1.8 Au    1  1s          38.421634     0.023766
              2  1s           5.778030     0.154679
              3 -1s           1.241774     0.469630
              4 -1s    
              5 -1s    
              6 -1s    
              7  1s    
              8  1s    
    2.8 Au    1  1s           0.297964     1.000000
              2  1s    
              3 -1s    
              4 -1s    
              5 -1s    
              6 -1s    
              7  1s    
              8  1s    

 NUCLEAR CHARGE:                   16
 NUMBER OF PRIMITIVE AOS:          32
 NUMBER OF SYMMETRY AOS:           32
 NUMBER OF CONTRACTIONS:           16   (    2Ag  +    2B3u +    2B2u +    2B1g +    2B1u +    2B2g +    2B3g +    2Au  )
 NUMBER OF CORE ORBITALS:           0   (    0Ag  +    0B3u +    0B2u +    0B1g +    0B1u +    0B2g +    0B3g +    0Au  )
 NUMBER OF VALENCE ORBITALS:        8   (    1Ag  +    1B3u +    1B2u +    1B1g +    1B1u +    1B2g +    1B3g +    1Au  )


 NUCLEAR REPULSION ENERGY   16.08323531

 Eigenvalues of metric

         1 0.378E+00 0.165E+01
         2 0.370E+00 0.164E+01
         3 0.370E+00 0.164E+01
         4 0.362E+00 0.163E+01
         5 0.370E+00 0.164E+01
         6 0.362E+00 0.163E+01
         7 0.362E+00 0.163E+01
         8 0.354E+00 0.162E+01


 Contracted 2-electron integrals neglected if value below      1.0D-11
 AO integral compression algorithm  1   Integral accuracy      1.0D-11

     0.262 MB (compressed) written to integral file (100.0%)


 NUMBER OF SORTED TWO-ELECTRON INTEGRALS:       1476.     BUFFER LENGTH:  32768
 NUMBER OF SEGMENTS:   1  SEGMENT LENGTH:       1476      RECORD LENGTH: 524288

 Memory used in sort:       0.56 MW

 SORT1 READ        8192. AND WROTE        1476. INTEGRALS IN      1 RECORDS. CPU TIME:     0.00 SEC, REAL TIME:     0.00 SEC
 SORT2 READ        1476. AND WROTE        1476. INTEGRALS IN      1 RECORDS. CPU TIME:     0.01 SEC, REAL TIME:     0.01 SEC

 FILE SIZES:   FILE 1:    30.3 MBYTE,  FILE 4:     4.2 MBYTE,   TOTAL:     34.6 MBYTE

 OPERATOR DM      FOR CENTER  0  COORDINATES:    0.000000    0.000000    0.000000


 **********************************************************************************************************************************
 DATASETS  * FILE   NREC   LENGTH (MB)   RECORD NAMES
              1      19       30.08       500      700      610      900      950      970     1000      129      960     1100   
                                          VAR     GEOM    BASINP   SYMINP    ZMAT    AOBASIS   BASIS     P2S    ABASIS      S 
                                         1400     1410     1200     1210     1080     1600     1650     1300     1700   
                                           T        V       H0       H01     AOSYM     SMH    MOLCAS    ERIS     OPER   

              3       5       14.89       500      610      700     1000     2100   
                                          VAR    BASINP    GEOM     BASIS     RHF  

 PROGRAMS   *        TOTAL       INT   RESTART
 CPU TIMES  *         0.26      0.14      0.01
 REAL TIME  *         0.43 SEC
 DISK USED  *        49.79 MB
 **********************************************************************************************************************************


 PROGRAM * CCSD (Closed-shell coupled cluster)     Authors: C. Hampel, H.-J. Werner, 1991, M. Deegan, P.J. Knowles, 1992


 Input parameters for THRESH:

 ENERGY   =    1.00D-10
 COEFF    =    1.00D-12
 PRINTCI  =    0.000000
 THRPRINT =    0.000000

 Convergence thresholds:  THRVAR = 1.00D-24  THRDEN = 1.00D-10

 Number of closed-shell orbitals:   8 (   1   1   1   1   1   1   1   1 )
 Number of external orbitals:       8 (   1   1   1   1   1   1   1   1 )

 Molecular orbitals read from record     2100.3  Type=RHF/CANONICAL (state 1.1)

 Number of N-1 electron functions:               8
 Number of N-2 electron functions:              36
 Number of singly external CSFs:                 8
 Number of doubly external CSFs:               288
 Total number of CSFs:                         297

 Length of J-op  integral file:               0.00 MB
 Length of K-op  integral file:               0.03 MB
 Length of 3-ext integral record:             0.00 MB

 Integral transformation finished. Total CPU:   0.00 sec, npass=  1  Memory used:   0.07 MW

 Reference energy:                    -22.84126352

 MP2 singlet pair energy:              -0.08960819
 MP2 triplet pair energy:              -0.00000000
 MP2 correlation energy:               -0.08960820
 MP2 total energy:                    -22.93087172

 SCS-MP2 correlation energy:           -0.10752983   (PS=  1.200000  PT=  0.333333)
 SCS-MP2 total energy:                -22.94879336

 ITER.      SQ.NORM     CORR.ENERGY   TOTAL ENERGY   ENERGY CHANGE        DEN1      VAR(S)    VAR(P)  DIIS     TIME  TIME/IT
   1      1.02993606    -0.11788746   -22.95915098    -0.02827927    -0.02176217  0.24D-04  0.11D-02  1  1     0.02     0.01
   2      1.03480031    -0.12003178   -22.96129530    -0.00214432    -0.00864333  0.15D-05  0.63D-08  2  2     0.03     0.01
   3      1.03480926    -0.12001974   -22.96128326     0.00001204    -0.00000586  0.85D-10  0.43D-10  3  3     0.03     0.01
   4      1.03481108    -0.12002258   -22.96128610    -0.00000284    -0.00000309  0.91D-12  0.39D-11  4  4     0.04     0.01
   5      1.03481093    -0.12002238   -22.96128590     0.00000020     0.00000027  0.40D-13  0.22D-13  5  5     0.04     0.01
   6      1.03481084    -0.12002222   -22.96128574     0.00000016     0.00000016  0.59D-16  0.68D-15  6  6     0.05     0.01
   7      1.03481084    -0.12002223   -22.96128575    -0.00000001    -0.00000001  0.10D-16  0.11D-16  6  1     0.05     0.01
   8      1.03481084    -0.12002223   -22.96128575     0.00000000     0.00000000  0.75D-20  0.17D-18  6  2     0.06     0.01
   9      1.03481084    -0.12002223   -22.96128575     0.00000000     0.00000000  0.11D-20  0.10D-20  6  3     0.06     0.01
  10      1.03481084    -0.12002223   -22.96128575    -0.00000000    -0.00000000  0.16D-22  0.10D-22  6  4     0.07     0.01
  11      1.03481084    -0.12002223   -22.96128575    -0.00000000    -0.00000000  0.37D-24  0.39D-24  6  5     0.07     0.01

 Norm of t1 vector:      0.00837491      S-energy:    -0.00000000      T1 diagnostic:  0.00148049
                                                                       D1 diagnostic:  0.00241027

 Singles amplitudes (print threshold =  0.000E+00):

         I         SYM. A    A   T(IA)

         1         1         1      0.00241027
         2         2         1      0.00219009
         3         3         1      0.00219009
         4         4         1      0.00197740
         5         5         1      0.00219009
         6         6         1      0.00197740
         7         7         1      0.00197740
         8         8         1      0.00177209

 Doubles amplitudes (print threshold =  0.000E+00):

         I         J         SYM. A    SYM. B    A         B      T(IJ, AB)

         1         1         1         1         1         1     -0.00852087
         1         1         2         2         1         1     -0.00823404
         1         1         3         3         1         1     -0.00823404
         1         1         4         4         1         1     -0.00795892
         1         1         5         5         1         1     -0.00823404
         1         1         6         6         1         1     -0.00795892
         1         1         7         7         1         1     -0.00795892
         1         1         8         8         1         1     -0.00769501
         2         2         1         1         1         1     -0.00862186
         2         2         2         2         1         1     -0.00833023
         2         2         3         3         1         1     -0.00832982
         2         2         4         4         1         1     -0.00805095
         2         2         5         5         1         1     -0.00832982
         2         2         6         6         1         1     -0.00805095
         2         2         7         7         1         1     -0.00805033
         2         2         8         8         1         1     -0.00778316
         3         3         1         1         1         1     -0.00862186
         3         3         2         2         1         1     -0.00832982
         3         3         3         3         1         1     -0.00833023
         3         3         4         4         1         1     -0.00805095
         3         3         5         5         1         1     -0.00832982
         3         3         6         6         1         1     -0.00805033
         3         3         7         7         1         1     -0.00805095
         3         3         8         8         1         1     -0.00778316
         4         4         1         1         1         1     -0.00872052
         4         4         2         2         1         1     -0.00842446
         4         4         3         3         1         1     -0.00842446
         4         4         4         4         1         1     -0.00814072
         4         4         5         5         1         1     -0.00842388
         4         4         6         6         1         1     -0.00814030
         4         4         7         7         1         1     -0.00814030
         4         4         8         8         1         1     -0.00786897
         5         5         1         1         1         1     -0.00862186
         5         5         2         2         1         1     -0.00832982
         5         5         3         3         1         1     -0.00832982
         5         5         4         4         1         1     -0.00805033
         5         5         5         5         1         1     -0.00833023
         5         5         6         6         1         1     -0.00805095
         5         5         7         7         1         1     -0.00805095
         5         5         8         8         1         1     -0.00778316
         6         6         1         1         1         1     -0.00872052
         6         6         2         2         1         1     -0.00842446
         6         6         3         3         1         1     -0.00842388
         6         6         4         4         1         1     -0.00814030
         6         6         5         5         1         1     -0.00842446
         6         6         6         6         1         1     -0.00814072
         6         6         7         7         1         1     -0.00814030
         6         6         8         8         1         1     -0.00786897
         7         7         1         1         1         1     -0.00872052
         7         7         2         2         1         1     -0.00842388
         7         7         3         3         1         1     -0.00842446
         7         7         4         4         1         1     -0.00814030
         7         7         5         5         1         1     -0.00842446
         7         7         6         6         1         1     -0.00814030
         7         7         7         7         1         1     -0.00814072
         7         7         8         8         1         1     -0.00786897
         8         8         1         1         1         1     -0.00881654
         8         8         2         2         1         1     -0.00851635
         8         8         3         3         1         1     -0.00851635
         8         8         4         4         1         1     -0.00822859
         8         8         5         5         1         1     -0.00851635
         8         8         6         6         1         1     -0.00822859
         8         8         7         7         1         1     -0.00822859
         8         8         8         8         1         1     -0.00795276
         2         1         1         2         1         1     -0.00842407
         2         1         2         1         1         1     -0.00842469
         2         1         3         4         1         1     -0.00814112
         2         1         4         3         1         1     -0.00814171
         2         1         5         6         1         1     -0.00814112
         2         1         6         5         1         1     -0.00814171
         2         1         7         8         1         1     -0.00786973
         2         1         8         7         1         1     -0.00787029
         4         3         1         2         1         1     -0.00852179
         4         3         2         1         1         1     -0.00852236
         4         3         3         4         1         1     -0.00823403
         4         3         4         3         1         1     -0.00823459
         4         3         5         6         1         1     -0.00823405
         4         3         6         5         1         1     -0.00823429
         4         3         7         8         1         1     -0.00795865
         4         3         8         7         1         1     -0.00795914
         6         5         1         2         1         1     -0.00852179
         6         5         2         1         1         1     -0.00852236
         6         5         3         4         1         1     -0.00823405
         6         5         4         3         1         1     -0.00823429
         6         5         5         6         1         1     -0.00823403
         6         5         6         5         1         1     -0.00823459
         6         5         7         8         1         1     -0.00795865
         6         5         8         7         1         1     -0.00795914
         8         7         1         2         1         1     -0.00861703
         8         7         2         1         1         1     -0.00861765
         8         7         3         4         1         1     -0.00832512
         8         7         4         3         1         1     -0.00832569
         8         7         5         6         1         1     -0.00832512
         8         7         6         5         1         1     -0.00832569
         8         7         7         8         1         1     -0.00804530
         8         7         8         7         1         1     -0.00804582
         3         1         1         3         1         1     -0.00842407
         3         1         2         4         1         1     -0.00814112
         3         1         3         1         1         1     -0.00842469
         3         1         4         2         1         1     -0.00814171
         3         1         5         7         1         1     -0.00814112
         3         1         6         8         1         1     -0.00786973
         3         1         7         5         1         1     -0.00814171
         3         1         8         6         1         1     -0.00787029
         4         2         1         3         1         1     -0.00852179
         4         2         2         4         1         1     -0.00823403
         4         2         3         1         1         1     -0.00852236
         4         2         4         2         1         1     -0.00823459
         4         2         5         7         1         1     -0.00823405
         4         2         6         8         1         1     -0.00795865
         4         2         7         5         1         1     -0.00823429
         4         2         8         6         1         1     -0.00795914
         7         5         1         3         1         1     -0.00852179
         7         5         2         4         1         1     -0.00823405
         7         5         3         1         1         1     -0.00852236
         7         5         4         2         1         1     -0.00823429
         7         5         5         7         1         1     -0.00823403
         7         5         6         8         1         1     -0.00795865
         7         5         7         5         1         1     -0.00823459
         7         5         8         6         1         1     -0.00795914
         8         6         1         3         1         1     -0.00861703
         8         6         2         4         1         1     -0.00832512
         8         6         3         1         1         1     -0.00861765
         8         6         4         2         1         1     -0.00832569
         8         6         5         7         1         1     -0.00832512
         8         6         6         8         1         1     -0.00804530
         8         6         7         5         1         1     -0.00832569
         8         6         8         6         1         1     -0.00804582
         3         2         1         4         1         1     -0.00832890
         3         2         2         3         1         1     -0.00833040
         3         2         3         2         1         1     -0.00832972
         3         2         4         1         1         1     -0.00832890
         3         2         5         8         1         1     -0.00804971
         3         2         6         7         1         1     -0.00805092
         3         2         7         6         1         1     -0.00805053
         3         2         8         5         1         1     -0.00804971
         4         1         1         4         1         1     -0.00832588
         4         1         2         3         1         1     -0.00832761
         4         1         3         2         1         1     -0.00832761
         4         1         4         1         1         1     -0.00832782
         4         1         5         8         1         1     -0.00804689
         4         1         6         7         1         1     -0.00804854
         4         1         7         6         1         1     -0.00804854
         4         1         8         5         1         1     -0.00804869
         7         6         1         4         1         1     -0.00842327
         7         6         2         3         1         1     -0.00842447
         7         6         3         2         1         1     -0.00842413
         7         6         4         1         1         1     -0.00842327
         7         6         5         8         1         1     -0.00813942
         7         6         6         7         1         1     -0.00814089
         7         6         7         6         1         1     -0.00814020
         7         6         8         5         1         1     -0.00813942
         8         5         1         4         1         1     -0.00842039
         8         5         2         3         1         1     -0.00842209
         8         5         3         2         1         1     -0.00842209
         8         5         4         1         1         1     -0.00842228
         8         5         5         8         1         1     -0.00813661
         8         5         6         7         1         1     -0.00813825
         8         5         7         6         1         1     -0.00813825
         8         5         8         5         1         1     -0.00813839
         5         1         1         5         1         1     -0.00842407
         5         1         2         6         1         1     -0.00814112
         5         1         3         7         1         1     -0.00814112
         5         1         4         8         1         1     -0.00786973
         5         1         5         1         1         1     -0.00842469
         5         1         6         2         1         1     -0.00814171
         5         1         7         3         1         1     -0.00814171
         5         1         8         4         1         1     -0.00787029
         6         2         1         5         1         1     -0.00852179
         6         2         2         6         1         1     -0.00823403
         6         2         3         7         1         1     -0.00823405
         6         2         4         8         1         1     -0.00795865
         6         2         5         1         1         1     -0.00852236
         6         2         6         2         1         1     -0.00823459
         6         2         7         3         1         1     -0.00823429
         6         2         8         4         1         1     -0.00795914
         7         3         1         5         1         1     -0.00852179
         7         3         2         6         1         1     -0.00823405
         7         3         3         7         1         1     -0.00823403
         7         3         4         8         1         1     -0.00795865
         7         3         5         1         1         1     -0.00852236
         7         3         6         2         1         1     -0.00823429
         7         3         7         3         1         1     -0.00823459
         7         3         8         4         1         1     -0.00795914
         8         4         1         5         1         1     -0.00861703
         8         4         2         6         1         1     -0.00832512
         8         4         3         7         1         1     -0.00832512
         8         4         4         8         1         1     -0.00804530
         8         4         5         1         1         1     -0.00861765
         8         4         6         2         1         1     -0.00832569
         8         4         7         3         1         1     -0.00832569
         8         4         8         4         1         1     -0.00804582
         5         2         1         6         1         1     -0.00832890
         5         2         2         5         1         1     -0.00833040
         5         2         3         8         1         1     -0.00804971
         5         2         4         7         1         1     -0.00805092
         5         2         5         2         1         1     -0.00832972
         5         2         6         1         1         1     -0.00832890
         5         2         7         4         1         1     -0.00805053
         5         2         8         3         1         1     -0.00804971
         6         1         1         6         1         1     -0.00832588
         6         1         2         5         1         1     -0.00832761
         6         1         3         8         1         1     -0.00804689
         6         1         4         7         1         1     -0.00804854
         6         1         5         2         1         1     -0.00832761
         6         1         6         1         1         1     -0.00832782
         6         1         7         4         1         1     -0.00804854
         6         1         8         3         1         1     -0.00804869
         7         4         1         6         1         1     -0.00842327
         7         4         2         5         1         1     -0.00842447
         7         4         3         8         1         1     -0.00813942
         7         4         4         7         1         1     -0.00814089
         7         4         5         2         1         1     -0.00842413
         7         4         6         1         1         1     -0.00842327
         7         4         7         4         1         1     -0.00814020
         7         4         8         3         1         1     -0.00813942
         8         3         1         6         1         1     -0.00842039
         8         3         2         5         1         1     -0.00842209
         8         3         3         8         1         1     -0.00813661
         8         3         4         7         1         1     -0.00813825
         8         3         5         2         1         1     -0.00842209
         8         3         6         1         1         1     -0.00842228
         8         3         7         4         1         1     -0.00813825
         8         3         8         3         1         1     -0.00813839
         5         3         1         7         1         1     -0.00832890
         5         3         2         8         1         1     -0.00804971
         5         3         3         5         1         1     -0.00833040
         5         3         4         6         1         1     -0.00805092
         5         3         5         3         1         1     -0.00832972
         5         3         6         4         1         1     -0.00805053
         5         3         7         1         1         1     -0.00832890
         5         3         8         2         1         1     -0.00804971
         6         4         1         7         1         1     -0.00842327
         6         4         2         8         1         1     -0.00813942
         6         4         3         5         1         1     -0.00842447
         6         4         4         6         1         1     -0.00814089
         6         4         5         3         1         1     -0.00842413
         6         4         6         4         1         1     -0.00814020
         6         4         7         1         1         1     -0.00842327
         6         4         8         2         1         1     -0.00813942
         7         1         1         7         1         1     -0.00832588
         7         1         2         8         1         1     -0.00804689
         7         1         3         5         1         1     -0.00832761
         7         1         4         6         1         1     -0.00804854
         7         1         5         3         1         1     -0.00832761
         7         1         6         4         1         1     -0.00804854
         7         1         7         1         1         1     -0.00832782
         7         1         8         2         1         1     -0.00804869
         8         2         1         7         1         1     -0.00842039
         8         2         2         8         1         1     -0.00813661
         8         2         3         5         1         1     -0.00842209
         8         2         4         6         1         1     -0.00813825
         8         2         5         3         1         1     -0.00842209
         8         2         6         4         1         1     -0.00813825
         8         2         7         1         1         1     -0.00842228
         8         2         8         2         1         1     -0.00813839
         5         4         1         8         1         1     -0.00823304
         5         4         2         7         1         1     -0.00823488
         5         4         3         6         1         1     -0.00823488
         5         4         4         5         1         1     -0.00823464
         5         4         5         4         1         1     -0.00823407
         5         4         6         3         1         1     -0.00823365
         5         4         7         2         1         1     -0.00823365
         5         4         8         1         1         1     -0.00823166
         6         3         1         8         1         1     -0.00823166
         6         3         2         7         1         1     -0.00823365
         6         3         3         6         1         1     -0.00823464
         6         3         4         5         1         1     -0.00823488
         6         3         5         4         1         1     -0.00823365
         6         3         6         3         1         1     -0.00823407
         6         3         7         2         1         1     -0.00823488
         6         3         8         1         1         1     -0.00823304
         7         2         1         8         1         1     -0.00823166
         7         2         2         7         1         1     -0.00823464
         7         2         3         6         1         1     -0.00823365
         7         2         4         5         1         1     -0.00823488
         7         2         5         4         1         1     -0.00823365
         7         2         6         3         1         1     -0.00823488
         7         2         7         2         1         1     -0.00823407
         7         2         8         1         1         1     -0.00823304
         8         1         1         8         1         1     -0.00822653
         8         1         2         7         1         1     -0.00822930
         8         1         3         6         1         1     -0.00822930
         8         1         4         5         1         1     -0.00823058
         8         1         5         4         1         1     -0.00822930
         8         1         6         3         1         1     -0.00823058
         8         1         7         2         1         1     -0.00823058
         8         1         8         1         1         1     -0.00823036


 RESULTS
 =======

  Reference energy                    -22.841263521837
  CCSD singlet pair energy             -0.120022230920
  CCSD triplet pair energy             -0.000000000595
  CCSD correlation energy              -0.120022231517

 !CCSD total energy                   -22.961285753354

 Timing summary (sec):

 STEP                 CPU(USER)    SYS     CPU(TOT)    WALL
 CCSD iterations         0.08      0.01      0.09      0.09

 Program statistics:

 Available memory in ccsd:                39998944
 Min. memory needed in ccsd:                  2743
 Max. memory used in ccsd:                    2743
 Max. memory used in cckext:                 37178 (11 integral passes)



 **********************************************************************************************************************************
 DATASETS  * FILE   NREC   LENGTH (MB)   RECORD NAMES
              1      20       30.11       500      700      610      900      950      970     1000      129      960     1100   
                                          VAR     GEOM    BASINP   SYMINP    ZMAT    AOBASIS   BASIS     P2S    ABASIS      S 
                                         1400     1410     1200     1210     1080     1600     1650     1300     1700     1380   
                                           T        V       H0       H01     AOSYM     SMH    MOLCAS    ERIS     OPER     JKOP   

              3       5       14.89       500      610      700     1000     2100   
                                          VAR    BASINP    GEOM     BASIS     RHF  

 PROGRAMS   *        TOTAL      CCSD       INT   RESTART
 CPU TIMES  *         0.41      0.15      0.14      0.01
 REAL TIME  *         0.61 SEC
 DISK USED  *        49.79 MB
 **********************************************************************************************************************************
 Molecular orbitals read from record     2100.3  Type=RHF/CANONICAL (state 1.1)
 Occupation numbers read from record     2100.3  Type=RHF/RHF (state 1.1)
 Orbital energies read from record       2100.3  Type=RHF/CANONICAL (state 1.1)
 Redundancy group numbers read from rec  2100.3  Type=RHF/RHF (state 1.1)

 CCSD/6-31G energy=    -22.961285753354

            CCSD
    -22.96128575
 **********************************************************************************************************************************
 Molpro calculation terminated
