
 Primary working directories    : /scr/yuriaoto/job.023860/molpro.RMcIl46myO
 Secondary working directories  : /scr/yuriaoto/job.023860/molpro.RMcIl46myO
 Wavefunction directory         : /scr/yuriaoto/job.023860/
 Main file repository           : /scr/yuriaoto/job.023860/molpro.RMcIl46myO/

 id        : yuriaoto

 Nodes             nprocs
 t-rex.ufabc.int.br    1

 Using customized tuning parameters: mindgm=8; mindgv=16; mindgc=1; mindgr=1; noblas=0; minvec=7
 default implementation of scratch files=df  


 Variables initialized (933), CPU time= 0.00 sec
 ***,
 memory,40,m
 gprint,orbital,basis,civector
 gthresh,thrprint=0,printci=0.0
 file,3,wfu.dat,old
 
 {ccsd,CC_NORM_MAX=10.0
 thresh,printci=0.0,ENERGY=1.0E-10,COEFF=1.0E-12
 print,ref=1
 core,0,0,0,0,0,0,0,0
 closed,1,0,0,0,1,0,0,0
 occ,2,0,0,0,1,0,0,0
 wf,5,1,1;
 }
 
 Commands  initialized (760), CPU time= 0.01 sec, 617 directives.
 Default parameters read. Elapsed time= 0.04 sec

 Checking input...
 Passed
1


                                         ***  PROGRAM SYSTEM MOLPRO  ***
                                       Copyright, TTI GmbH Stuttgart, 2015
                                    Version 2019.2 linked Abr  7 2019 15:10:35


 **********************************************************************************************************************************
 LABEL *                                                                                 
  64 bit serial version                                                                  DATE: 10-Jun-20          TIME: 16:50:42  
 **********************************************************************************************************************************

 SHA1:             3a8a58c585c929645742fb5a1b7541a4ad1da699
 **********************************************************************************************************************************


 THRESHOLDS:

 ZERO    =  1.00D-12  ONEINT  =  1.00D-12  TWOINT  =  1.00D-11  PREFAC  =  1.00D-14  XXXXXX  =  1.00D-09  EORDER  =  1.00D-04
 ENERGY  =  0.00D+00  ETEST   =  0.00D+00  EDENS   =  0.00D+00  THRDEDEF=  1.00D-06  GRADIENT=  1.00D-02  STEP    =  1.00D-03
 ORBITAL =  1.00D-05  CIVEC   =  1.00D-05  COEFF   =  1.00D-04  PRINTCI =  0.00D+00  PUNCHCI =  9.90D+01  OPTGRAD =  3.00D-04
 OPTENERG=  1.00D-06  OPTSTEP =  3.00D-04  THRGRAD =  1.00D-10  COMPRESS=  1.00D-11  VARMIN  =  1.00D-07  VARMAX  =  1.00D-03
 THRDOUB =  0.00D+00  THRDIV  =  1.00D-05  THRRED  =  1.00D-07  THRPSP  =  1.00D+00  THRDC   =  1.00D-10  THRCS   =  1.00D-10
 THRNRM  =  1.00D-08  THREQ   =  0.00D+00  THRDE   =  1.00D+00  THRREF  =  1.00D-05  SPARFAC =  1.00D+00  THRDLP  =  1.00D-07
 THRDIA  =  1.00D-10  THRDLS  =  1.00D-07  THRGPS  =  0.00D+00  THRKEX  =  0.00D+00  THRDIS  =  2.00D-01  THRVAR  =  1.00D-10
 THRLOC  =  1.00D-06  THRGAP  =  1.00D-06  THRLOCT = -1.00D+00  THRGAPT = -1.00D+00  THRORB  =  1.00D-06  THRMLTP =  0.00D+00
 THRCPQCI=  1.00D-10  KEXTA   =  0.00D+00  THRCOARS=  0.00D+00  SYMTOL  =  1.00D-06  GRADTOL =  1.00D-06  THROVL  =  1.00D-08
 THRORTH =  1.00D-08  GRID    =  1.00D-06  GRIDMAX =  1.00D-03  DTMAX   =  0.00D+00  THROCCDE=  1.00D-01  THROCCDE=  1.00D-01
 THRPRINT=  0.00D+00


 Variable memory set to   40000000 words,  buffer space 



 Permanent file  3  wfu.dat  assigned.  Implementation=df    Size= 14.08 MB


 PROGRAM * RESTART 


 Reading variables from file 3

 _FNUC           =      0.00000000
 _BASIS          =    STO-3G
 _NELEC          =      6.00000000
 _PROGRAM        =    RHF-SCF
 _DMX_SCF        =      0.00000000
 _DMY_SCF        =      0.00000000
 _DMZ_SCF        =      0.00000000
 _HOMO           =      2.10000000
 _EHOMO          =     -0.15007102
 _LUMO           =      2.50000000
 _ELUMO          =      0.08336193
 _ENERGY         =    -14.63864283
 _ENERGY_METHOD  =    RHF
 _ENERGY_BASIS   =    STO-3G
 _ENUC           =      1.80000000
 _EPS1(1:3)      =     -2.32975138    -0.15007102     0.15828123
 _EPS2           =      0.13305715
 _EPS3           =      0.13305715
 _EPS5(1:3)      =     -2.32973347     0.08336193     0.47434817
 _EPS6           =      0.24181392
 _EPS7           =      0.24181392
 _IPROC_MPP      =      0.00000000
 _IPROC_MPPX     =      0.00000000
 _ORBITAL        =   2100.30000000
 _STATUS         =      1.00000000
 _DATE           =    21-Oct-19
 _LASTORB        =    RHF
 _OUTPUT         =    /scr/yuriaoto/job.022395/RHF.xml
 _PGROUP         =    D2h 
 _TIME           =    09:55:26
 R               =      5.00000000

 Geometry written to block  1 of record 700


 **********************************************************************************************************************************
 DATASETS  * FILE   NREC   LENGTH (MB)   RECORD NAMES
              3       5       14.77       500      610      700     1000     2100   
                                          VAR    BASINP    GEOM     BASIS     RHF  

 PROGRAMS   *        TOTAL   RESTART
 CPU TIMES  *         0.12      0.02
 REAL TIME  *         0.15 SEC
 DISK USED  *        26.84 MB
 **********************************************************************************************************************************


 Recomputing integrals since basis changed


 Using spherical harmonics

 Library entry LI     S STO-3G               selected for orbital group  1
 Library entry LI     P STO-3G               selected for orbital group  1


 PROGRAM * SEWARD (Integral evaluation for generally contracted gaussian basis sets)     Author: Roland Lindh, 1990

 Geometry written to block  1 of record 700

 Orientation using atomic masses  
 Molecule type: Linear
 User-specified symmetry elements: X,Y,Z
 Symmetry elements: X,Y,Z
 Rotational constants:      20.8009354     20.8009354      0.0000000 GHz  (calculated with average atomic masses)

 Point group  D2h 



 ATOMIC COORDINATES

 NR  ATOM    CHARGE       X              Y              Z

   1  LI1     3.00    0.000000000    0.000000000   -2.500000000
   2  LI2     3.00    0.000000000    0.000000000    2.500000000

 Bond lengths in Bohr (Angstrom)

 1-2  5.000000000
     ( 2.645886055)


 BASIS DATA

   Nr Sym  Nuc  Type         Exponents   Contraction coefficients

    1.1 Ag    1  1s          16.119575     0.154329
              2  1s           2.936201     0.535328
                              0.794651     0.444635
    2.1 Ag    1  1s           0.636290    -0.099967
              2  1s           0.147860     0.399513
                              0.048089     0.700115
    3.1 Ag    1  2pz          0.636290     0.155916
              2 -2pz          0.147860     0.607684
                              0.048089     0.391957
    1.2 B3u   1  2px          0.636290     0.155916
              2  2px          0.147860     0.607684
                              0.048089     0.391957
    1.3 B2u   1  2py          0.636290     0.155916
              2  2py          0.147860     0.607684
                              0.048089     0.391957
    1.5 B1u   1  1s          16.119575     0.154329
              2 -1s           2.936201     0.535328
                              0.794651     0.444635
    2.5 B1u   1  1s           0.636290    -0.099967
              2 -1s           0.147860     0.399513
                              0.048089     0.700115
    3.5 B1u   1  2pz          0.636290     0.155916
              2  2pz          0.147860     0.607684
                              0.048089     0.391957
    1.6 B2g   1  2px          0.636290     0.155916
              2 -2px          0.147860     0.607684
                              0.048089     0.391957
    1.7 B3g   1  2py          0.636290     0.155916
              2 -2py          0.147860     0.607684
                              0.048089     0.391957

 NUCLEAR CHARGE:                    6
 NUMBER OF PRIMITIVE AOS:          30
 NUMBER OF SYMMETRY AOS:           30
 NUMBER OF CONTRACTIONS:           10   (    3Ag  +    1B3u +    1B2u +    0B1g +    3B1u +    1B2g +    1B3g +    0Au  )
 NUMBER OF CORE ORBITALS:           2   (    1Ag  +    0B3u +    0B2u +    0B1g +    1B1u +    0B2g +    0B3g +    0Au  )
 NUMBER OF VALENCE ORBITALS:        8   (    2Ag  +    1B3u +    1B2u +    0B1g +    2B1u +    1B2g +    1B3g +    0Au  )


 NUCLEAR REPULSION ENERGY    1.80000000

 Eigenvalues of metric

         1 0.805E+00 0.104E+01 0.192E+01
         2 0.129E+01
         3 0.129E+01
         5 0.155E+00 0.846E+00 0.123E+01
         6 0.713E+00
         7 0.713E+00


 Contracted 2-electron integrals neglected if value below      1.0D-11
 AO integral compression algorithm  1   Integral accuracy      1.0D-11

     0.262 MB (compressed) written to integral file (100.0%)


 NUMBER OF SORTED TWO-ELECTRON INTEGRALS:        373.     BUFFER LENGTH:  32768
 NUMBER OF SEGMENTS:   1  SEGMENT LENGTH:        373      RECORD LENGTH: 524288

 Memory used in sort:       0.56 MW

 SORT1 READ         776. AND WROTE         373. INTEGRALS IN      1 RECORDS. CPU TIME:     0.00 SEC, REAL TIME:     0.00 SEC
 SORT2 READ         373. AND WROTE         373. INTEGRALS IN      1 RECORDS. CPU TIME:     0.00 SEC, REAL TIME:     0.01 SEC

 FILE SIZES:   FILE 1:    30.2 MBYTE,  FILE 4:     4.2 MBYTE,   TOTAL:     34.4 MBYTE

 OPERATOR DM      FOR CENTER  0  COORDINATES:    0.000000    0.000000    0.000000


 **********************************************************************************************************************************
 DATASETS  * FILE   NREC   LENGTH (MB)   RECORD NAMES
              1      19       29.94       500      700      610      900      950      970     1000      129      960     1100   
                                          VAR     GEOM    BASINP   SYMINP    ZMAT    AOBASIS   BASIS     P2S    ABASIS      S 
                                         1400     1410     1200     1210     1080     1600     1650     1300     1700   
                                           T        V       H0       H01     AOSYM     SMH    MOLCAS    ERIS     OPER   

              3       5       14.77       500      610      700     1000     2100   
                                          VAR    BASINP    GEOM     BASIS     RHF  

 PROGRAMS   *        TOTAL       INT   RESTART
 CPU TIMES  *         0.25      0.13      0.02
 REAL TIME  *         0.37 SEC
 DISK USED  *        49.42 MB
 **********************************************************************************************************************************


 PROGRAM * CCSD (Closed-shell coupled cluster)     Authors: C. Hampel, H.-J. Werner, 1991, M. Deegan, P.J. Knowles, 1992


 Input parameters for THRESH:

 ENERGY   =    1.00D-10
 COEFF    =    1.00D-12
 PRINTCI  =    0.000000
 THRPRINT =    0.000000

 Convergence thresholds:  THRVAR = 1.00D-24  THRDEN = 1.00D-10

 Number of closed-shell orbitals:   2 (   1   0   0   0   1   0   0 )
 Number of active  orbitals:        1 (   1   0   0   0   0   0   0 )
 Number of external orbitals:       7 (   1   1   1   0   2   1   1 )

 Number of N-1 electron functions:               5
 Number of N-2 electron functions:              10
 Number of singly external CSFs:                10
 Number of doubly external CSFs:                92
 Total number of CSFs:                         102

 Molecular orbitals read from record     2100.3  Type=RHF/CANONICAL (state 1.1)

 ?Warning: RHF orbitals are used. Occupation in reference determinant changed.

 Integral transformation finished. Total CPU:   0.00 sec, npass=  1  Memory used:   0.07 MW

 Starting RMP2 calculation, locsing= 0

 ITER.      SQ.NORM     CORR.ENERGY   TOTAL ENERGY   ENERGY CHANGE        DEN1      VAR(S)    VAR(P)  DIIS     TIME
   1      1.01427470    -0.00605905   -14.49463086    -0.00605905    -0.00038250  0.78D-03  0.43D-06  1  1     0.01
   2      1.01732864    -0.00660123   -14.49517305    -0.00054218    -0.00000038  0.33D-06  0.49D-07  2  2     0.01
   3      1.01739360    -0.00661154   -14.49518335    -0.00001031    -0.00000000  0.60D-12  0.11D-10  3  3     0.01
   4      1.01739365    -0.00661154   -14.49518336    -0.00000000    -0.00000000  0.23D-15  0.52D-15  4  4     0.01
   5      1.01739365    -0.00661154   -14.49518336     0.00000000    -0.00000000  0.10D-19  0.12D-18  5  5     0.01
   6      1.01739365    -0.00661154   -14.49518336     0.00000000    -0.00000000  0.65D-23  0.14D-22  6  6     0.01
   7      1.01739365    -0.00661154   -14.49518336    -0.00000000    -0.00000000  0.16D-25  0.35D-25  6  1     0.01

 Norm of t1 vector:      0.13121529      S-energy:    -0.00588630      T1 diagnostic:  0.04149031
 Norm of t2 vector:      0.01327378      P-energy:    -0.00072524
                                         Alpha-Beta:  -0.00070905
                                         Alpha-Alpha: -0.00001607
                                         Beta-Beta:   -0.00000011

 Singles amplitudes (print threshold =  0.000E+00):

         I         SYM. A    A   T(IA) [Alpha-Alpha]

         1         1         1      0.00000000
         1         1         2      0.00356976
         2         1         1      0.00000000
         2         1         2      0.13104484
         3         5         1     -0.00328891
         3         5         2      0.00186829

         I         SYM. A    A   T(IA) [Beta-Beta]

         1         1         1     -0.00000000
         1         1         2      0.00257620
         2         1         1      0.00000000
         2         1         2      0.00000000
         3         5         1     -0.00137180
         3         5         2      0.00302199

 Doubles amplitudes (print threshold =  0.000E+00):

         I         J         SYM. A    SYM. B    A         B      T(IJ, AB) [Alpha-Alpha]

         2         1         1         1         1         1      0.00000000
         2         1         1         1         1         2      0.00000000
         2         1         1         1         2         1      0.00000000
         2         1         1         1         2         2      0.00000000
         2         1         2         2         1         1      0.00000000
         2         1         3         3         1         1      0.00000000
         2         1         5         5         1         1      0.00000000
         2         1         5         5         1         2      0.00030745
         2         1         5         5         2         1     -0.00030745
         2         1         5         5         2         2      0.00000000
         2         1         6         6         1         1      0.00000000
         2         1         7         7         1         1      0.00000000
         3         1         1         5         1         1      0.00000000
         3         1         1         5         1         2      0.00000000
         3         1         1         5         2         1     -0.00005724
         3         1         1         5         2         2      0.00010831
         3         1         2         6         1         1      0.00005838
         3         1         3         7         1         1      0.00005838
         3         1         5         1         1         1      0.00000000
         3         1         5         1         1         2      0.00005724
         3         1         5         1         2         1      0.00000000
         3         1         5         1         2         2     -0.00010831
         3         1         6         2         1         1     -0.00005838
         3         1         7         3         1         1     -0.00005838
         3         2         1         5         1         1      0.00000000
         3         2         1         5         1         2      0.00000000
         3         2         1         5         2         1     -0.00036674
         3         2         1         5         2         2      0.00160380
         3         2         2         6         1         1      0.00109670
         3         2         3         7         1         1      0.00109670
         3         2         5         1         1         1      0.00000000
         3         2         5         1         1         2      0.00036674
         3         2         5         1         2         1      0.00000000
         3         2         5         1         2         2     -0.00160380
         3         2         6         2         1         1     -0.00109670
         3         2         7         3         1         1     -0.00109670

         I         J         SYM. A    SYM. B    A         B      T(IJ, AB) [Beta-Beta]

         3         1         1         5         1         1     -0.00000873
         3         1         1         5         1         2      0.00001408
         3         1         1         5         2         1     -0.00005692
         3         1         1         5         2         2      0.00010672
         3         1         2         6         1         1      0.00005725
         3         1         3         7         1         1      0.00005725
         3         1         5         1         1         1      0.00000873
         3         1         5         1         1         2      0.00005692
         3         1         5         1         2         1     -0.00001408
         3         1         5         1         2         2     -0.00010672
         3         1         6         2         1         1     -0.00005725
         3         1         7         3         1         1     -0.00005725

         I         J         SYM. A    SYM. B    A         B      T(IJ, AB) [Alpha-Beta]

         1         1         1         1         1         1      0.00000000
         1         1         1         1         1         2      0.00000000
         1         1         1         1         2         1      0.00031563
         1         1         1         1         2         2     -0.00110763
         1         1         2         2         1         1     -0.00085386
         1         1         3         3         1         1     -0.00085386
         1         1         5         5         1         1     -0.00267553
         1         1         5         5         1         2     -0.00127769
         1         1         5         5         2         1     -0.00127556
         1         1         5         5         2         2     -0.00284280
         1         1         6         6         1         1     -0.00115230
         1         1         7         7         1         1     -0.00115230
         2         1         1         1         1         1      0.00000000
         2         1         1         1         1         2      0.00000000
         2         1         1         1         2         1     -0.00072318
         2         1         1         1         2         2     -0.00288835
         2         1         2         2         1         1     -0.00269548
         2         1         3         3         1         1     -0.00269548
         2         1         5         5         1         1      0.00071703
         2         1         5         5         1         2      0.00204060
         2         1         5         5         2         1      0.00174097
         2         1         5         5         2         2     -0.00075560
         2         1         6         6         1         1     -0.00212817
         2         1         7         7         1         1     -0.00212817
         3         3         1         1         1         1      0.00000000
         3         3         1         1         1         2      0.00000000
         3         3         1         1         2         1      0.00033820
         3         3         1         1         2         2     -0.00099160
         3         3         2         2         1         1     -0.00080196
         3         3         3         3         1         1     -0.00080196
         3         3         5         5         1         1     -0.00270451
         3         3         5         5         1         2     -0.00122000
         3         3         5         5         2         1     -0.00121751
         3         3         5         5         2         2     -0.00293061
         3         3         6         6         1         1     -0.00121862
         3         3         7         7         1         1     -0.00121862
         3         1         1         5         1         1      0.00000000
         3         1         1         5         1         2      0.00000000
         3         1         1         5         2         1      0.00089568
         3         1         1         5         2         2     -0.00081044
         3         1         2         6         1         1     -0.00096178
         3         1         3         7         1         1     -0.00096178
         3         1         5         1         1         1     -0.00268626
         3         1         5         1         1         2      0.00094991
         3         1         5         1         2         1     -0.00230015
         3         1         5         1         2         2     -0.00091346
         3         1         6         2         1         1     -0.00101503
         3         1         7         3         1         1     -0.00101503
         1         3         1         5         1         1      0.00000000
         1         3         1         5         1         2      0.00000000
         1         3         1         5         2         1      0.00095374
         1         3         1         5         2         2     -0.00091951
         1         3         2         6         1         1     -0.00102133
         1         3         3         7         1         1     -0.00102133
         1         3         5         1         1         1     -0.00269373
         1         3         5         1         1         2      0.00089380
         1         3         5         1         2         1     -0.00228533
         1         3         5         1         2         2     -0.00080751
         1         3         6         2         1         1     -0.00095894
         1         3         7         3         1         1     -0.00095894
         2         3         1         5         1         1      0.00000000
         2         3         1         5         1         2      0.00000000
         2         3         1         5         2         1      0.00134543
         2         3         1         5         2         2     -0.00303668
         2         3         2         6         1         1     -0.00297213
         2         3         3         7         1         1     -0.00297213
         2         3         5         1         1         1      0.00174935
         2         3         5         1         1         2      0.00096121
         2         3         5         1         2         1      0.00106487
         2         3         5         1         2         2     -0.00143233
         2         3         6         2         1         1     -0.00186398
         2         3         7         3         1         1     -0.00186398

 Spin contamination <S**2-Sz**2-Sz>     0.00000011
  Reference energy                    -14.488571815438
  RHF-RMP2 correlation energy          -0.006611542233
 !RHF-RMP2 energy                     -14.495183357671

 Starting UCCSD calculation

 ITER.      SQ.NORM     CORR.ENERGY   TOTAL ENERGY   ENERGY CHANGE        DEN1      VAR(S)    VAR(P)  DIIS     TIME
   1      1.02422839    -0.00765061   -14.49622242    -0.00765061    -0.00203030  0.41D-02  0.46D-05  1  1     0.01
   2      1.07172347    -0.01260743   -14.50117924    -0.00495682    -0.00016684  0.28D-03  0.66D-05  2  2     0.02
   3      1.08794836    -0.01382901   -14.50240082    -0.00122158    -0.00000297  0.11D-05  0.60D-06  3  3     0.02
   4      1.08921414    -0.01391471   -14.50248653    -0.00008570    -0.00000010  0.11D-07  0.24D-07  4  4     0.02
   5      1.08948254    -0.01393464   -14.50250645    -0.00001993    -0.00000000  0.14D-10  0.56D-09  5  5     0.02
   6      1.08942401    -0.01393035   -14.50250217     0.00000429    -0.00000000  0.11D-11  0.67D-11  6  6     0.02
   7      1.08943453    -0.01393112   -14.50250293    -0.00000077    -0.00000000  0.24D-13  0.17D-12  6  3     0.02
   8      1.08943491    -0.01393114   -14.50250296    -0.00000003    -0.00000000  0.93D-15  0.58D-14  6  1     0.02
   9      1.08943488    -0.01393114   -14.50250296     0.00000000    -0.00000000  0.83D-15  0.43D-15  6  2     0.02
  10      1.08943484    -0.01393114   -14.50250295     0.00000000    -0.00000000  0.57D-17  0.11D-16  6  4     0.02
  11      1.08943484    -0.01393114   -14.50250295    -0.00000000    -0.00000000  0.43D-18  0.15D-18  6  5     0.03
  12      1.08943484    -0.01393114   -14.50250295    -0.00000000    -0.00000000  0.41D-19  0.35D-20  6  6     0.03
  13      1.08943484    -0.01393114   -14.50250295    -0.00000000    -0.00000000  0.15D-20  0.22D-21  6  3     0.03
  14      1.08943484    -0.01393114   -14.50250295    -0.00000000    -0.00000000  0.25D-22  0.58D-23  6  2     0.03
  15      1.08943484    -0.01393114   -14.50250295    -0.00000000    -0.00000000  0.68D-24  0.15D-24  6  1     0.03

 Norm of t1 vector:      0.29875315      S-energy:    -0.01323509      T1 diagnostic:  0.09447238
                                                                       D1 diagnostic:  0.21122291
 Norm of t2 vector:      0.01346857      P-energy:    -0.00069605
                                         Alpha-Beta:  -0.00068634
                                         Alpha-Alpha: -0.00000959
                                         Beta-Beta:   -0.00000012

 Singles amplitudes (print threshold =  0.000E+00):

         I         SYM. A    A   T(IA) [Alpha-Alpha]

         1         1         1      0.00000000
         1         1         2      0.00262370
         2         1         1      0.00000000
         2         1         2      0.29871430
         3         5         1     -0.00218253
         3         5         2      0.00098548

         I         SYM. A    A   T(IA) [Beta-Beta]

         1         1         1      0.00045270
         1         1         2      0.00178790
         2         1         1      0.00000000
         2         1         2      0.00000000
         3         5         1     -0.00049285
         3         5         2      0.00263583

 Doubles amplitudes (print threshold =  0.000E+00):

         I         J         SYM. A    SYM. B    A         B      T(IJ, AB) [Alpha-Alpha]

         2         1         1         1         1         1      0.00000000
         2         1         1         1         1         2      0.00000000
         2         1         1         1         2         1      0.00000000
         2         1         1         1         2         2     -0.00000000
         2         1         2         2         1         1      0.00000000
         2         1         3         3         1         1      0.00000000
         2         1         5         5         1         1      0.00000000
         2         1         5         5         1         2     -0.00104539
         2         1         5         5         2         1      0.00104539
         2         1         5         5         2         2      0.00000000
         2         1         6         6         1         1      0.00000000
         2         1         7         7         1         1      0.00000000
         3         1         1         5         1         1      0.00000000
         3         1         1         5         1         2      0.00000000
         3         1         1         5         2         1     -0.00005956
         3         1         1         5         2         2      0.00011466
         3         1         2         6         1         1      0.00006171
         3         1         3         7         1         1      0.00006171
         3         1         5         1         1         1      0.00000000
         3         1         5         1         1         2      0.00005956
         3         1         5         1         2         1      0.00000000
         3         1         5         1         2         2     -0.00011466
         3         1         6         2         1         1     -0.00006171
         3         1         7         3         1         1     -0.00006171
         3         2         1         5         1         1      0.00000000
         3         2         1         5         1         2      0.00000000
         3         2         1         5         2         1     -0.00105225
         3         2         1         5         2         2      0.00043048
         3         2         2         6         1         1      0.00144454
         3         2         3         7         1         1      0.00144454
         3         2         5         1         1         1      0.00000000
         3         2         5         1         1         2      0.00105225
         3         2         5         1         2         1      0.00000000
         3         2         5         1         2         2     -0.00043048
         3         2         6         2         1         1     -0.00144454
         3         2         7         3         1         1     -0.00144454

         I         J         SYM. A    SYM. B    A         B      T(IJ, AB) [Beta-Beta]

         3         1         1         5         1         1     -0.00000359
         3         1         1         5         1         2      0.00001529
         3         1         1         5         2         1     -0.00006465
         3         1         1         5         2         2      0.00011999
         3         1         2         6         1         1      0.00006106
         3         1         3         7         1         1      0.00006106
         3         1         5         1         1         1      0.00000359
         3         1         5         1         1         2      0.00006465
         3         1         5         1         2         1     -0.00001529
         3         1         5         1         2         2     -0.00011999
         3         1         6         2         1         1     -0.00006106
         3         1         7         3         1         1     -0.00006106

         I         J         SYM. A    SYM. B    A         B      T(IJ, AB) [Alpha-Beta]

         1         1         1         1         1         1      0.00000000
         1         1         1         1         1         2      0.00000000
         1         1         1         1         2         1      0.00107560
         1         1         1         1         2         2     -0.00112408
         1         1         2         2         1         1     -0.00082688
         1         1         3         3         1         1     -0.00082688
         1         1         5         5         1         1     -0.00234722
         1         1         5         5         1         2     -0.00118277
         1         1         5         5         2         1     -0.00113961
         1         1         5         5         2         2     -0.00269978
         1         1         6         6         1         1     -0.00106052
         1         1         7         7         1         1     -0.00106052
         2         1         1         1         1         1      0.00000000
         2         1         1         1         1         2      0.00000000
         2         1         1         1         2         1     -0.00097385
         2         1         1         1         2         2     -0.00243328
         2         1         2         2         1         1     -0.00335427
         2         1         3         3         1         1     -0.00335427
         2         1         5         5         1         1      0.00110252
         2         1         5         5         1         2      0.00136935
         2         1         5         5         2         1      0.00241749
         2         1         5         5         2         2     -0.00064098
         2         1         6         6         1         1     -0.00245499
         2         1         7         7         1         1     -0.00245499
         3         3         1         1         1         1      0.00000000
         3         3         1         1         1         2      0.00000000
         3         3         1         1         2         1      0.00109697
         3         3         1         1         2         2     -0.00099963
         3         3         2         2         1         1     -0.00076994
         3         3         3         3         1         1     -0.00076994
         3         3         5         5         1         1     -0.00237932
         3         3         5         5         1         2     -0.00111830
         3         3         5         5         2         1     -0.00107350
         3         3         5         5         2         2     -0.00279640
         3         3         6         6         1         1     -0.00113301
         3         3         7         7         1         1     -0.00113301
         3         1         1         5         1         1      0.00000000
         3         1         1         5         1         2      0.00000000
         3         1         1         5         2         1      0.00149934
         3         1         1         5         2         2     -0.00017025
         3         1         2         6         1         1     -0.00092260
         3         1         3         7         1         1     -0.00092260
         3         1         5         1         1         1     -0.00237966
         3         1         5         1         1         2      0.00081525
         3         1         5         1         2         1     -0.00213003
         3         1         5         1         2         2     -0.00093119
         3         1         6         2         1         1     -0.00094569
         3         1         7         3         1         1     -0.00094569
         1         3         1         5         1         1      0.00000000
         1         3         1         5         1         2      0.00000000
         1         3         1         5         2         1      0.00156167
         1         3         1         5         2         2     -0.00028761
         1         3         2         6         1         1     -0.00099008
         1         3         3         7         1         1     -0.00099008
         1         3         5         1         1         1     -0.00238353
         1         3         5         1         1         2      0.00075492
         1         3         5         1         2         1     -0.00211519
         1         3         5         1         2         2     -0.00081236
         1         3         6         2         1         1     -0.00089035
         1         3         7         3         1         1     -0.00089035
         2         3         1         5         1         1      0.00000000
         2         3         1         5         1         2      0.00000000
         2         3         1         5         2         1      0.00085646
         2         3         1         5         2         2     -0.00270077
         2         3         2         6         1         1     -0.00365236
         2         3         3         7         1         1     -0.00365236
         2         3         5         1         1         1      0.00169092
         2         3         5         1         1         2      0.00030729
         2         3         5         1         2         1      0.00164734
         2         3         5         1         2         2     -0.00177853
         2         3         6         2         1         1     -0.00220524
         2         3         7         3         1         1     -0.00220524

 Spin contamination <S**2-Sz**2-Sz>     0.00000114


  Correlated core orbitals:             1.1       1.5
  Orbital energies:                    -2.6422   -2.6422

  UCCSD core-core energy               -0.000509125137
  UCCSD core-valence energy            -0.000269478172
  UCCSD valence correlation energy     -0.013152536193


 RESULTS
 =======

  Reference energy                    -14.488571815438
  UCCSD singles energy                 -0.013235088592
  UCCSD pair energy                    -0.000696050909
  UCCSD correlation energy             -0.013931139501

 !RHF-UCCSD energy                    -14.502502954939

 Program statistics:

 Available memory in ccsd:                39999098
 Min. memory needed in ccsd:                  1009
 Max. memory used in ccsd:                    1075
 Max. memory used in cckext:                 33986 (15 integral passes)
 Max. memory used in cckint:                 65984 ( 1 integral passes)



 **********************************************************************************************************************************
 DATASETS  * FILE   NREC   LENGTH (MB)   RECORD NAMES
              1      19       29.94       500      700      610      900      950      970     1000      129      960     1100   
                                          VAR     GEOM    BASINP   SYMINP    ZMAT    AOBASIS   BASIS     P2S    ABASIS      S 
                                         1400     1410     1200     1210     1080     1600     1650     1300     1700   
                                           T        V       H0       H01     AOSYM     SMH    MOLCAS    ERIS     OPER   

              3       5       14.77       500      610      700     1000     2100   
                                          VAR    BASINP    GEOM     BASIS     RHF  

 PROGRAMS   *        TOTAL      CCSD       INT   RESTART
 CPU TIMES  *         0.35      0.10      0.13      0.02
 REAL TIME  *         0.49 SEC
 DISK USED  *        49.42 MB
 **********************************************************************************************************************************
 Molecular orbitals read from record     2100.3  Type=RHF/CANONICAL (state 1.1)
 Occupation numbers read from record     2100.3  Type=RHF/RHF (state 1.1)
 Orbital energies read from record       2100.3  Type=RHF/CANONICAL (state 1.1)
 Redundancy group numbers read from rec  2100.3  Type=RHF/RHF (state 1.1)

 CCSD/STO-3G energy=    -14.502502954939

            CCSD
    -14.50250295
 **********************************************************************************************************************************
 Molpro calculation terminated
