
 Primary working directories    : /scr/yuriaoto/job.023689/molpro.ktTxf0jhWA
 Secondary working directories  : /scr/yuriaoto/job.023689/molpro.ktTxf0jhWA
 Wavefunction directory         : /scr/yuriaoto/job.023689/
 Main file repository           : /scr/yuriaoto/job.023689/molpro.ktTxf0jhWA/

 id        : yuriaoto

 Nodes             nprocs
 t-rex.ufabc.int.br    1

 Using customized tuning parameters: mindgm=8; mindgv=16; mindgc=1; mindgr=1; noblas=0; minvec=7
 default implementation of scratch files=df  


 Variables initialized (933), CPU time= 0.00 sec
 ***,
 memory,40,m
 gprint,orbital,basis,civector
 gthresh,printci=0.0,thrprint=0
 file,3,wfu.dat,old
 
 {bccd,SAVEORB=2150.2,print,CC_NORM_MAX=10.0
 thresh,printci=0.0,ENERGY=1.0E-10,COEFF=1.0E-12
 print,ref=1
 core,0
 wf,6,1,0;
 }
 
 {put,xml,orbitals.xml; orbital,2150.2; nosort; novariables}
 
 Commands  initialized (760), CPU time= 0.01 sec, 617 directives.
 Default parameters read. Elapsed time= 0.03 sec

 Checking input...
 Passed
1


                                         ***  PROGRAM SYSTEM MOLPRO  ***
                                       Copyright, TTI GmbH Stuttgart, 2015
                                    Version 2019.2 linked Abr  7 2019 15:10:35


 **********************************************************************************************************************************
 LABEL *                                                                                 
  64 bit serial version                                                                  DATE: 05-Jun-20          TIME: 23:32:28  
 **********************************************************************************************************************************

 SHA1:             3a8a58c585c929645742fb5a1b7541a4ad1da699
 **********************************************************************************************************************************


 THRESHOLDS:

 ZERO    =  1.00D-12  ONEINT  =  1.00D-12  TWOINT  =  1.00D-11  PREFAC  =  1.00D-14  XXXXXX  =  1.00D-09  EORDER  =  1.00D-04
 ENERGY  =  0.00D+00  ETEST   =  0.00D+00  EDENS   =  0.00D+00  THRDEDEF=  1.00D-06  GRADIENT=  1.00D-02  STEP    =  1.00D-03
 ORBITAL =  1.00D-05  CIVEC   =  1.00D-05  COEFF   =  1.00D-04  PRINTCI =  0.00D+00  PUNCHCI =  9.90D+01  OPTGRAD =  3.00D-04
 OPTENERG=  1.00D-06  OPTSTEP =  3.00D-04  THRGRAD =  1.00D-10  COMPRESS=  1.00D-11  VARMIN  =  1.00D-07  VARMAX  =  1.00D-03
 THRDOUB =  0.00D+00  THRDIV  =  1.00D-05  THRRED  =  1.00D-07  THRPSP  =  1.00D+00  THRDC   =  1.00D-10  THRCS   =  1.00D-10
 THRNRM  =  1.00D-08  THREQ   =  0.00D+00  THRDE   =  1.00D+00  THRREF  =  1.00D-05  SPARFAC =  1.00D+00  THRDLP  =  1.00D-07
 THRDIA  =  1.00D-10  THRDLS  =  1.00D-07  THRGPS  =  0.00D+00  THRKEX  =  0.00D+00  THRDIS  =  2.00D-01  THRVAR  =  1.00D-10
 THRLOC  =  1.00D-06  THRGAP  =  1.00D-06  THRLOCT = -1.00D+00  THRGAPT = -1.00D+00  THRORB  =  1.00D-06  THRMLTP =  0.00D+00
 THRCPQCI=  1.00D-10  KEXTA   =  0.00D+00  THRCOARS=  0.00D+00  SYMTOL  =  1.00D-06  GRADTOL =  1.00D-06  THROVL  =  1.00D-08
 THRORTH =  1.00D-08  GRID    =  1.00D-06  GRIDMAX =  1.00D-03  DTMAX   =  0.00D+00  THROCCDE=  1.00D-01  THROCCDE=  1.00D-01
 THRPRINT=  0.00D+00


 Variable memory set to   40000000 words,  buffer space 



 Permanent file  3  wfu.dat  assigned.  Implementation=df    Size= 14.10 MB


 PROGRAM * RESTART 


 Reading variables from file 3

 _FNUC           =      0.00000000
 _BASIS          =    CC-PVTZ
 _NELEC          =      6.00000000
 _PROGRAM        =    RHF-SCF
 _DMX_SCF        =      0.00000000
 _DMY_SCF        =      0.00000000
 _DMZ_SCF        =      0.00000000
 _HOMO           =      2.10000000
 _EHOMO          =     -0.18224319
 _LUMO           =      2.50000000
 _ELUMO          =      0.00671464
 _ENERGY         =    -14.87113611
 _ENERGY_METHOD  =    RHF
 _ENERGY_BASIS   =    cc-pVTZ
 _ENUC           =      1.80000000
 _EPS1(1:13)     =     -2.45288987    -0.18224319     0.03854712     0.10701166     0.14531626     0.20132214
                        0.29578721     0.48884990     0.54279194     0.67005534     0.71011391     0.76079758
                        3.02244577
 _EPS2(1:7)      =      0.02716422     0.11604575     0.23979625     0.45701108     0.51087424     0.65663878
                        0.75753063
 _EPS3(1:7)      =      0.02716422     0.11604575     0.23979625     0.45701108     0.51087424     0.65663878
                        0.75753063
 _EPS4(1:3)      =      0.20132214     0.54279194     0.71011391
 _EPS5(1:13)     =     -2.45251703     0.00671464     0.06418201     0.15568446     0.23456666     0.26036282
                        0.39933341     0.51839623     0.69667587     0.74973264     0.77175124     1.01349064
                        3.16580891
 _EPS6(1:7)      =      0.05594314     0.16306709     0.32645184     0.46064971     0.59133328     0.71550490
                        0.96090549
 _EPS7(1:7)      =      0.05594314     0.16306709     0.32645184     0.46064971     0.59133328     0.71550490
                        0.96090549
 _EPS8(1:3)      =      0.26036282     0.69667587     0.77175124
 _IPROC_MPP      =      0.00000000
 _IPROC_MPPX     =      0.00000000
 _ORBITAL        =   2100.30000000
 _STATUS         =      1.00000000
 _DATE           =    10-Feb-20
 _LASTORB        =    RHF
 _OUTPUT         =    /scr/yuriaoto/job.022757/RHF.xml
 _PGROUP         =    D2h 
 _TIME           =    10:55:45
 R               =      5.00000000

 Geometry written to block  1 of record 700


 **********************************************************************************************************************************
 DATASETS  * FILE   NREC   LENGTH (MB)   RECORD NAMES
              3       5       14.79       500      610      700     1000     2100   
                                          VAR    BASINP    GEOM     BASIS     RHF  

 PROGRAMS   *        TOTAL   RESTART
 CPU TIMES  *         0.09      0.01
 REAL TIME  *         0.12 SEC
 DISK USED  *        26.86 MB
 **********************************************************************************************************************************


 Recomputing integrals since basis changed


 Using spherical harmonics

 Library entry LI     S cc-pVTZ              selected for orbital group  1
 Library entry LI     P cc-pVTZ              selected for orbital group  1
 Library entry LI     D cc-pVTZ              selected for orbital group  1
 Library entry LI     F cc-pVTZ              selected for orbital group  1


 PROGRAM * SEWARD (Integral evaluation for generally contracted gaussian basis sets)     Author: Roland Lindh, 1990

 Geometry written to block  1 of record 700

 Orientation using atomic masses  
 Molecule type: Linear
 User-specified symmetry elements: X,Y,Z
 Symmetry elements: X,Y,Z
 Rotational constants:      20.8009354     20.8009354      0.0000000 GHz  (calculated with average atomic masses)

 Point group  D2h 



 ATOMIC COORDINATES

 NR  ATOM    CHARGE       X              Y              Z

   1  LI1     3.00    0.000000000    0.000000000   -2.500000000
   2  LI2     3.00    0.000000000    0.000000000    2.500000000

 Bond lengths in Bohr (Angstrom)

 1-2  5.000000000
     ( 2.645886055)


 BASIS DATA

   Nr Sym  Nuc  Type         Exponents   Contraction coefficients

    1.1 Ag    1  1s        5988.000000     0.000133   -0.000021    0.000000    0.000000
    2.1 Ag    2  1s         898.900000     0.001025   -0.000161    0.000000    0.000000
    3.1 Ag                  205.900000     0.005272   -0.000820    0.000000    0.000000
    4.1 Ag                   59.240000     0.020929   -0.003326    0.000000    0.000000
                             19.870000     0.066340   -0.010519    0.000000    0.000000
                              7.406000     0.165775   -0.028097    0.000000    0.000000
                              2.930000     0.315038   -0.055936    0.000000    0.000000
                              1.189000     0.393523   -0.099237    0.000000    0.000000
                              0.479800     0.190870   -0.112189    0.000000    0.000000
                              0.075090     0.005414    0.567889    1.000000    0.000000
                              0.028320    -0.001328    0.530382    0.000000    1.000000
    5.1 Ag    1  2pz          3.266000     0.008630    0.000000    0.000000
    6.1 Ag    2 -2pz          0.651100     0.047538    0.000000    0.000000
    7.1 Ag                    0.169600     0.209772    0.000000    0.000000
                              0.055780     0.528522    1.000000    0.000000
                              0.020500     0.382744    0.000000    1.000000
    8.1 Ag    1  3d0          0.190000     1.000000
              2  3d0   
    9.1 Ag    1  3d2+         0.190000     1.000000
              2  3d2+  
   10.1 Ag    1  3d0          0.072500     1.000000
              2  3d0   
   11.1 Ag    1  3d2+         0.072500     1.000000
              2  3d2+  
   12.1 Ag    1  4f0          0.127000     1.000000
              2 -4f0   
   13.1 Ag    1  4f2+         0.127000     1.000000
              2 -4f2+  
    1.2 B3u   1  2px          3.266000     0.008630    0.000000    0.000000
    2.2 B3u   2  2px          0.651100     0.047538    0.000000    0.000000
    3.2 B3u                   0.169600     0.209772    0.000000    0.000000
                              0.055780     0.528522    1.000000    0.000000
                              0.020500     0.382744    0.000000    1.000000
    4.2 B3u   1  3d1+         0.190000     1.000000
              2 -3d1+  
    5.2 B3u   1  3d1+         0.072500     1.000000
              2 -3d1+  
    6.2 B3u   1  4f1+         0.127000     1.000000
              2  4f1+  
    7.2 B3u   1  4f3+         0.127000     1.000000
              2  4f3+  
    1.3 B2u   1  2py          3.266000     0.008630    0.000000    0.000000
    2.3 B2u   2  2py          0.651100     0.047538    0.000000    0.000000
    3.3 B2u                   0.169600     0.209772    0.000000    0.000000
                              0.055780     0.528522    1.000000    0.000000
                              0.020500     0.382744    0.000000    1.000000
    4.3 B2u   1  3d1-         0.190000     1.000000
              2 -3d1-  
    5.3 B2u   1  3d1-         0.072500     1.000000
              2 -3d1-  
    6.3 B2u   1  4f1-         0.127000     1.000000
              2  4f1-  
    7.3 B2u   1  4f3-         0.127000     1.000000
              2  4f3-  
    1.4 B1g   1  3d2-         0.190000     1.000000
              2  3d2-  
    2.4 B1g   1  3d2-         0.072500     1.000000
              2  3d2-  
    3.4 B1g   1  4f2-         0.127000     1.000000
              2 -4f2-  
    1.5 B1u   1  1s        5988.000000     0.000133   -0.000021    0.000000    0.000000
    2.5 B1u   2 -1s         898.900000     0.001025   -0.000161    0.000000    0.000000
    3.5 B1u                 205.900000     0.005272   -0.000820    0.000000    0.000000
    4.5 B1u                  59.240000     0.020929   -0.003326    0.000000    0.000000
                             19.870000     0.066340   -0.010519    0.000000    0.000000
                              7.406000     0.165775   -0.028097    0.000000    0.000000
                              2.930000     0.315038   -0.055936    0.000000    0.000000
                              1.189000     0.393523   -0.099237    0.000000    0.000000
                              0.479800     0.190870   -0.112189    0.000000    0.000000
                              0.075090     0.005414    0.567889    1.000000    0.000000
                              0.028320    -0.001328    0.530382    0.000000    1.000000
    5.5 B1u   1  2pz          3.266000     0.008630    0.000000    0.000000
    6.5 B1u   2  2pz          0.651100     0.047538    0.000000    0.000000
    7.5 B1u                   0.169600     0.209772    0.000000    0.000000
                              0.055780     0.528522    1.000000    0.000000
                              0.020500     0.382744    0.000000    1.000000
    8.5 B1u   1  3d0          0.190000     1.000000
              2 -3d0   
    9.5 B1u   1  3d2+         0.190000     1.000000
              2 -3d2+  
   10.5 B1u   1  3d0          0.072500     1.000000
              2 -3d0   
   11.5 B1u   1  3d2+         0.072500     1.000000
              2 -3d2+  
   12.5 B1u   1  4f0          0.127000     1.000000
              2  4f0   
   13.5 B1u   1  4f2+         0.127000     1.000000
              2  4f2+  
    1.6 B2g   1  2px          3.266000     0.008630    0.000000    0.000000
    2.6 B2g   2 -2px          0.651100     0.047538    0.000000    0.000000
    3.6 B2g                   0.169600     0.209772    0.000000    0.000000
                              0.055780     0.528522    1.000000    0.000000
                              0.020500     0.382744    0.000000    1.000000
    4.6 B2g   1  3d1+         0.190000     1.000000
              2  3d1+  
    5.6 B2g   1  3d1+         0.072500     1.000000
              2  3d1+  
    6.6 B2g   1  4f1+         0.127000     1.000000
              2 -4f1+  
    7.6 B2g   1  4f3+         0.127000     1.000000
              2 -4f3+  
    1.7 B3g   1  2py          3.266000     0.008630    0.000000    0.000000
    2.7 B3g   2 -2py          0.651100     0.047538    0.000000    0.000000
    3.7 B3g                   0.169600     0.209772    0.000000    0.000000
                              0.055780     0.528522    1.000000    0.000000
                              0.020500     0.382744    0.000000    1.000000
    4.7 B3g   1  3d1-         0.190000     1.000000
              2  3d1-  
    5.7 B3g   1  3d1-         0.072500     1.000000
              2  3d1-  
    6.7 B3g   1  4f1-         0.127000     1.000000
              2 -4f1-  
    7.7 B3g   1  4f3-         0.127000     1.000000
              2 -4f3-  
    1.8 Au    1  3d2-         0.190000     1.000000
              2 -3d2-  
    2.8 Au    1  3d2-         0.072500     1.000000
              2 -3d2-  
    3.8 Au    1  4f2-         0.127000     1.000000
              2  4f2-  

 NUCLEAR CHARGE:                    6
 NUMBER OF PRIMITIVE AOS:          96
 NUMBER OF SYMMETRY AOS:           86
 NUMBER OF CONTRACTIONS:           60   (   13Ag  +    7B3u +    7B2u +    3B1g +   13B1u +    7B2g +    7B3g +    3Au  )
 NUMBER OF CORE ORBITALS:           2   (    1Ag  +    0B3u +    0B2u +    0B1g +    1B1u +    0B2g +    0B3g +    0Au  )
 NUMBER OF VALENCE ORBITALS:        8   (    2Ag  +    1B3u +    1B2u +    0B1g +    2B1u +    1B2g +    1B3g +    0Au  )


 NUCLEAR REPULSION ENERGY    1.80000000

 EXTRA SYMMETRY OF AOS IN SYMMETRY 1:   1 1 1 1 1 1 1 1 2 1   2 1 2
 EXTRA SYMMETRY OF AOS IN SYMMETRY 2:   1 1 1 1 1 1 2
 EXTRA SYMMETRY OF AOS IN SYMMETRY 3:   1 1 1 1 1 1 2
 EXTRA SYMMETRY OF AOS IN SYMMETRY 5:   1 1 1 1 1 1 1 1 2 1   2 1 2
 EXTRA SYMMETRY OF AOS IN SYMMETRY 6:   1 1 1 1 1 1 2
 EXTRA SYMMETRY OF AOS IN SYMMETRY 7:   1 1 1 1 1 1 2

 Eigenvalues of metric

         1 0.105E-02 0.623E-02 0.554E-01 0.144E+00 0.376E+00 0.389E+00 0.852E+00 0.121E+01
         2 0.163E-01 0.202E+00 0.443E+00 0.996E+00 0.120E+01 0.217E+01 0.466E+01
         3 0.163E-01 0.202E+00 0.443E+00 0.996E+00 0.120E+01 0.217E+01 0.466E+01
         4 0.376E+00 0.121E+01 0.236E+01
         5 0.953E-03 0.131E-02 0.820E-02 0.163E-01 0.171E+00 0.188E+00 0.335E+00 0.399E+00
         6 0.798E-02 0.188E-01 0.958E-01 0.281E+00 0.796E+00 0.128E+01 0.183E+01
         7 0.798E-02 0.188E-01 0.958E-01 0.281E+00 0.796E+00 0.128E+01 0.183E+01
         8 0.171E+00 0.399E+00 0.149E+01


 Contracted 2-electron integrals neglected if value below      1.0D-11
 AO integral compression algorithm  1   Integral accuracy      1.0D-11

     1.835 MB (compressed) written to integral file ( 55.5%)


 NUMBER OF SORTED TWO-ELECTRON INTEGRALS:     230799.     BUFFER LENGTH:  32768
 NUMBER OF SEGMENTS:   1  SEGMENT LENGTH:     230799      RECORD LENGTH: 524288

 Memory used in sort:       0.79 MW

 SORT1 READ      450560. AND WROTE      192195. INTEGRALS IN      1 RECORDS. CPU TIME:     0.02 SEC, REAL TIME:     0.02 SEC
 SORT2 READ      192195. AND WROTE      230799. INTEGRALS IN      7 RECORDS. CPU TIME:     0.08 SEC, REAL TIME:     0.11 SEC

 FILE SIZES:   FILE 1:    31.9 MBYTE,  FILE 4:     4.2 MBYTE,   TOTAL:     36.1 MBYTE

 OPERATOR DM      FOR CENTER  0  COORDINATES:    0.000000    0.000000    0.000000


 **********************************************************************************************************************************
 DATASETS  * FILE   NREC   LENGTH (MB)   RECORD NAMES
              1      19       31.01       500      700      610      900      950      970     1000      129      960     1100   
                                          VAR     GEOM    BASINP   SYMINP    ZMAT    AOBASIS   BASIS     P2S    ABASIS      S 
                                         1400     1410     1200     1210     1080     1600     1650     1300     1700   
                                           T        V       H0       H01     AOSYM     SMH    MOLCAS    ERIS     OPER   

              3       5       14.79       500      610      700     1000     2100   
                                          VAR    BASINP    GEOM     BASIS     RHF  

 PROGRAMS   *        TOTAL       INT   RESTART
 CPU TIMES  *         0.40      0.31      0.01
 REAL TIME  *         0.54 SEC
 DISK USED  *        51.14 MB
 **********************************************************************************************************************************


 PROGRAM * BCCD (Closed-shell Brueckner coupled-cluster)     Authors: C. Hampel, H.-J. Werner, 1991, M. Deegan, P.J. Knowles, 1992


 Input parameters for THRESH:

 ENERGY   =    1.00D-10
 COEFF    =    1.00D-12
 PRINTCI  =    0.000000
 THRPRINT =    0.000000

 Convergence thresholds:  THRVAR = 1.00D-24  THRDEN = 1.00D-10

 Number of closed-shell orbitals:   3 (   2   0   0   0   1   0   0   0 )
 Number of external orbitals:      57 (  11   7   7   3  12   7   7   3 )

 Molecular orbitals read from record     2100.3  Type=RHF/CANONICAL (state 1.1)

 Number of N-1 electron functions:               3
 Number of N-2 electron functions:               6
 Number of singly external CSFs:                34
 Number of doubly external CSFs:              2239
 Total number of CSFs:                        2274

 Brueckner orbitals will be computed and saved on record    2150.2

 Length of J-op  integral file:               0.00 MB
 Length of K-op  integral file:               0.07 MB

 Integral transformation finished. Total CPU:   0.00 sec, npass=  1  Memory used:   0.07 MW

 Reference energy:                    -14.87113611

 MP2 singles energy:                   -0.00000000
 MP2 singlet pair energy:              -0.04440448
 MP2 triplet pair energy:              -0.00061015
 MP2 correlation energy:               -0.04501463
 MP2 total energy:                    -14.91615074

 SCS-MP2 correlation energy:           -0.05366502   (PS=  1.200000  PT=  0.333333)
 SCS-MP2 total energy:                -14.92480113

 ITER.      SQ.NORM     CORR.ENERGY   TOTAL ENERGY   ENERGY CHANGE        DEN1      VAR(S)    VAR(P)  DIIS     TIME  TIME/IT
   1      1.05350042    -0.05616616   -14.92730227    -0.01115153    -0.00692996  0.12D-03  0.25D-02  1  1     0.02     0.01
   2      1.08991612    -0.05842023   -14.92949061    -0.00225408    -0.00743415  0.62D-04  0.11D-02  2  2     0.04     0.01
   3      1.09971538    -0.05997225   -14.93082703    -0.00155202    -0.00058587  0.32D-05  0.95D-04  3  3     0.05     0.01
   4      1.10344263    -0.06005953   -14.93089672    -0.00008728     0.00005595  0.81D-06  0.21D-04  4  4     0.07     0.01
   5      1.10434625    -0.06006645   -14.93092040    -0.00000692    -0.00017985  0.33D-06  0.28D-05  5  5     0.08     0.01
   6      1.10432341    -0.06006728   -14.93092023    -0.00000083     0.00000924  0.97D-07  0.38D-06  6  6     0.09     0.01
   7      1.10435767    -0.06006921   -14.93092157    -0.00000194     0.00001176  0.51D-07  0.63D-07  6  2     0.10     0.01
   8      1.10435206    -0.06007016   -14.93092138    -0.00000094     0.00000395  0.21D-07  0.15D-07  6  1     0.11     0.01
   9      1.10435177    -0.06007162   -14.93092156    -0.00000147    -0.00000954  0.50D-08  0.33D-08  6  3     0.12     0.01
  10      1.10434587    -0.06007307   -14.93092144    -0.00000145    -0.00000074  0.36D-09  0.37D-09  6  4     0.14     0.01
  11      1.10434425    -0.06007345   -14.93092144    -0.00000038     0.00000052  0.46D-10  0.74D-10  6  5     0.15     0.02
  12      1.10434454    -0.06007352   -14.93092144    -0.00000007     0.00000007  0.43D-11  0.16D-10  6  6     0.17     0.02
  13      1.10434568    -0.06007353   -14.93092144    -0.00000000    -0.00000018  0.30D-12  0.43D-11  6  2     0.18     0.02
  14      1.10434631    -0.06007352   -14.93092143     0.00000000    -0.00000009  0.28D-13  0.77D-12  6  1     0.19     0.02
  15      1.10434654    -0.06007352   -14.93092142     0.00000000    -0.00000002  0.92D-14  0.15D-12  6  6     0.20     0.02
  16      1.10434661    -0.06007352   -14.93092142     0.00000000     0.00000000  0.23D-14  0.37D-13  6  3     0.21     0.01
  17      1.10434662    -0.06007352   -14.93092142     0.00000000     0.00000000  0.60D-15  0.73D-14  6  4     0.22     0.01
  18      1.10434662    -0.06007352   -14.93092142     0.00000000    -0.00000000  0.88D-15  0.17D-14  6  5     0.23     0.01
  19      1.10434662    -0.06007352   -14.93092142    -0.00000000     0.00000000  0.49D-15  0.33D-15  6  2     0.24     0.01
  20      1.10434662    -0.06007352   -14.93092142    -0.00000000     0.00000000  0.16D-15  0.86D-16  6  1     0.25     0.01
  21      1.10434661    -0.06007352   -14.93092142    -0.00000000     0.00000000  0.27D-16  0.23D-16  6  6     0.26     0.01
  22      1.10434662    -0.06007352   -14.93092142    -0.00000000    -0.00000000  0.20D-17  0.50D-17  6  3     0.26     0.01
  23      1.10434662    -0.06007352   -14.93092142    -0.00000000    -0.00000000  0.12D-18  0.10D-17  6  4     0.27     0.01
  24      1.10434662    -0.06007352   -14.93092142    -0.00000000    -0.00000000  0.49D-20  0.31D-18  6  5     0.28     0.01
  25      1.10434662    -0.06007352   -14.93092142     0.00000000    -0.00000000  0.20D-20  0.73D-19  6  2     0.29     0.01
  26      1.10434662    -0.06007352   -14.93092142     0.00000000    -0.00000000  0.12D-20  0.80D-20  6  1     0.29     0.01
  27      1.10434662    -0.06007352   -14.93092142     0.00000000    -0.00000000  0.31D-21  0.65D-21  6  6     0.30     0.01
  28      1.10434662    -0.06007352   -14.93092142     0.00000000    -0.00000000  0.11D-21  0.10D-21  6  3     0.31     0.01
  29      1.10434662    -0.06007352   -14.93092142     0.00000000     0.00000000  0.36D-22  0.20D-22  6  4     0.32     0.01
  30      1.10434662    -0.06007352   -14.93092142     0.00000000     0.00000000  0.91D-23  0.51D-23  6  5     0.33     0.01
  31      1.10434662    -0.06007352   -14.93092142     0.00000000     0.00000000  0.26D-23  0.19D-23  6  2     0.34     0.01
  32      1.10434662    -0.06007352   -14.93092142     0.00000000     0.00000000  0.62D-24  0.74D-24  6  1     0.34     0.01
  33      1.10434662    -0.06007352   -14.93092142    -0.00000000    -0.00000000  0.93D-25  0.31D-24  6  3     0.35     0.01

 Norm of t1 vector:      0.00000000      S-energy:    -0.00000000      T1 diagnostic:  0.00000000

 Orbital rotation generators (print threshold =  0.000E+00):

         I         SYM. A    A   T(IA)

         1         1         1      0.00015940
         1         1         2     -0.00059807
         1         1         3      0.00136731
         1         1         4      0.00000000
         1         1         5      0.00003701
         1         1         6     -0.00016427
         1         1         7     -0.00000000
         1         1         8      0.00169181
         1         1         9      0.00000000
         1         1        10      0.00035173
         1         1        11     -0.00099705
         2         1         1      0.01579739
         2         1         2     -0.01672073
         2         1         3      0.00501564
         2         1         4     -0.00000000
         2         1         5      0.00192924
         2         1         6     -0.00089152
         2         1         7     -0.00000000
         2         1         8      0.00049771
         2         1         9      0.00000000
         2         1        10     -0.00042426
         2         1        11     -0.00024154
         3         5         1     -0.00115699
         3         5         2      0.00116005
         3         5         3     -0.00079753
         3         5         4     -0.00136134
         3         5         5      0.00000000
         3         5         6      0.00178658
         3         5         7     -0.00106984
         3         5         8      0.00000000
         3         5         9      0.00017591
         3         5        10     -0.00000000
         3         5        11      0.00024406
         3         5        12     -0.00096068

 Doubles amplitudes (print threshold =  0.000E+00):

         I         J         SYM. A    SYM. B    A         B      T(IJ, AB)

         1         1         1         1         1         1     -0.00008789
         1         1         1         1         1         2      0.00017970
         1         1         1         1         1         3     -0.00004890
         1         1         1         1         1         4     -0.00000000
         1         1         1         1         1         5     -0.00017578
         1         1         1         1         1         6     -0.00036738
         1         1         1         1         1         7      0.00000000
         1         1         1         1         1         8      0.00016207
         1         1         1         1         1         9      0.00000000
         1         1         1         1         1        10      0.00005837
         1         1         1         1         1        11      0.00067635
         1         1         1         1         2         1      0.00017970
         1         1         1         1         2         2     -0.00038386
         1         1         1         1         2         3      0.00027082
         1         1         1         1         2         4     -0.00000000
         1         1         1         1         2         5      0.00029313
         1         1         1         1         2         6      0.00056150
         1         1         1         1         2         7     -0.00000000
         1         1         1         1         2         8      0.00006268
         1         1         1         1         2         9     -0.00000000
         1         1         1         1         2        10     -0.00001188
         1         1         1         1         2        11     -0.00183227
         1         1         1         1         3         1     -0.00004890
         1         1         1         1         3         2      0.00027082
         1         1         1         1         3         3     -0.00086299
         1         1         1         1         3         4     -0.00000000
         1         1         1         1         3         5      0.00006591
         1         1         1         1         3         6      0.00028584
         1         1         1         1         3         7      0.00000000
         1         1         1         1         3         8     -0.00151517
         1         1         1         1         3         9      0.00000000
         1         1         1         1         3        10     -0.00035460
         1         1         1         1         3        11      0.00303678
         1         1         1         1         4         1     -0.00000000
         1         1         1         1         4         2     -0.00000000
         1         1         1         1         4         3     -0.00000000
         1         1         1         1         4         4      0.00000956
         1         1         1         1         4         5     -0.00000000
         1         1         1         1         4         6      0.00000000
         1         1         1         1         4         7      0.00000326
         1         1         1         1         4         8     -0.00000000
         1         1         1         1         4         9     -0.00000618
         1         1         1         1         4        10      0.00000000
         1         1         1         1         4        11     -0.00000000
         1         1         1         1         5         1     -0.00017578
         1         1         1         1         5         2      0.00029313
         1         1         1         1         5         3      0.00006591
         1         1         1         1         5         4     -0.00000000
         1         1         1         1         5         5     -0.00030605
         1         1         1         1         5         6     -0.00062354
         1         1         1         1         5         7      0.00000000
         1         1         1         1         5         8      0.00049030
         1         1         1         1         5         9     -0.00000000
         1         1         1         1         5        10      0.00012876
         1         1         1         1         5        11      0.00058686
         1         1         1         1         6         1     -0.00036738
         1         1         1         1         6         2      0.00056150
         1         1         1         1         6         3      0.00028584
         1         1         1         1         6         4      0.00000000
         1         1         1         1         6         5     -0.00062354
         1         1         1         1         6         6     -0.00126610
         1         1         1         1         6         7      0.00000000
         1         1         1         1         6         8      0.00127266
         1         1         1         1         6         9      0.00000000
         1         1         1         1         6        10      0.00034404
         1         1         1         1         6        11      0.00054926
         1         1         1         1         7         1      0.00000000
         1         1         1         1         7         2     -0.00000000
         1         1         1         1         7         3      0.00000000
         1         1         1         1         7         4      0.00000326
         1         1         1         1         7         5      0.00000000
         1         1         1         1         7         6      0.00000000
         1         1         1         1         7         7      0.00000629
         1         1         1         1         7         8     -0.00000000
         1         1         1         1         7         9     -0.00000659
         1         1         1         1         7        10     -0.00000000
         1         1         1         1         7        11      0.00000000
         1         1         1         1         8         1      0.00016207
         1         1         1         1         8         2      0.00006268
         1         1         1         1         8         3     -0.00151517
         1         1         1         1         8         4     -0.00000000
         1         1         1         1         8         5      0.00049030
         1         1         1         1         8         6      0.00127266
         1         1         1         1         8         7     -0.00000000
         1         1         1         1         8         8     -0.00325263
         1         1         1         1         8         9     -0.00000000
         1         1         1         1         8        10     -0.00079245
         1         1         1         1         8        11      0.00458348
         1         1         1         1         9         1      0.00000000
         1         1         1         1         9         2     -0.00000000
         1         1         1         1         9         3      0.00000000
         1         1         1         1         9         4     -0.00000618
         1         1         1         1         9         5     -0.00000000
         1         1         1         1         9         6      0.00000000
         1         1         1         1         9         7     -0.00000659
         1         1         1         1         9         8     -0.00000000
         1         1         1         1         9         9     -0.00004885
         1         1         1         1         9        10     -0.00000000
         1         1         1         1         9        11      0.00000000
         1         1         1         1        10         1      0.00005837
         1         1         1         1        10         2     -0.00001188
         1         1         1         1        10         3     -0.00035460
         1         1         1         1        10         4      0.00000000
         1         1         1         1        10         5      0.00012876
         1         1         1         1        10         6      0.00034404
         1         1         1         1        10         7     -0.00000000
         1         1         1         1        10         8     -0.00079245
         1         1         1         1        10         9     -0.00000000
         1         1         1         1        10        10     -0.00027470
         1         1         1         1        10        11      0.00101312
         1         1         1         1        11         1      0.00067635
         1         1         1         1        11         2     -0.00183227
         1         1         1         1        11         3      0.00303678
         1         1         1         1        11         4     -0.00000000
         1         1         1         1        11         5      0.00058686
         1         1         1         1        11         6      0.00054926
         1         1         1         1        11         7      0.00000000
         1         1         1         1        11         8      0.00458348
         1         1         1         1        11         9      0.00000000
         1         1         1         1        11        10      0.00101312
         1         1         1         1        11        11     -0.01573031
         1         1         2         2         1         1      0.00003406
         1         1         2         2         1         2     -0.00002808
         1         1         2         2         1         3      0.00001087
         1         1         2         2         1         4     -0.00040533
         1         1         2         2         1         5      0.00000000
         1         1         2         2         1         6      0.00014796
         1         1         2         2         1         7      0.00015541
         1         1         2         2         2         1     -0.00002808
         1         1         2         2         2         2     -0.00010358
         1         1         2         2         2         3     -0.00000746
         1         1         2         2         2         4     -0.00061341
         1         1         2         2         2         5      0.00000000
         1         1         2         2         2         6      0.00021276
         1         1         2         2         2         7      0.00023177
         1         1         2         2         3         1      0.00001087
         1         1         2         2         3         2     -0.00000746
         1         1         2         2         3         3      0.00000916
         1         1         2         2         3         4     -0.00012389
         1         1         2         2         3         5      0.00000000
         1         1         2         2         3         6      0.00003976
         1         1         2         2         3         7      0.00005468
         1         1         2         2         4         1     -0.00040533
         1         1         2         2         4         2     -0.00061341
         1         1         2         2         4         3     -0.00012389
         1         1         2         2         4         4     -0.00208243
         1         1         2         2         4         5      0.00000000
         1         1         2         2         4         6      0.00068919
         1         1         2         2         4         7      0.00078223
         1         1         2         2         5         1      0.00000000
         1         1         2         2         5         2      0.00000000
         1         1         2         2         5         3      0.00000000
         1         1         2         2         5         4      0.00000000
         1         1         2         2         5         5      0.00000517
         1         1         2         2         5         6     -0.00000000
         1         1         2         2         5         7     -0.00000000
         1         1         2         2         6         1      0.00014796
         1         1         2         2         6         2      0.00021276
         1         1         2         2         6         3      0.00003976
         1         1         2         2         6         4      0.00068919
         1         1         2         2         6         5     -0.00000000
         1         1         2         2         6         6     -0.00026361
         1         1         2         2         6         7     -0.00023186
         1         1         2         2         7         1      0.00015541
         1         1         2         2         7         2      0.00023177
         1         1         2         2         7         3      0.00005468
         1         1         2         2         7         4      0.00078223
         1         1         2         2         7         5     -0.00000000
         1         1         2         2         7         6     -0.00023186
         1         1         2         2         7         7     -0.00030705
         1         1         3         3         1         1      0.00003406
         1         1         3         3         1         2     -0.00002808
         1         1         3         3         1         3      0.00001087
         1         1         3         3         1         4     -0.00040533
         1         1         3         3         1         5     -0.00000000
         1         1         3         3         1         6      0.00014796
         1         1         3         3         1         7      0.00015541
         1         1         3         3         2         1     -0.00002808
         1         1         3         3         2         2     -0.00010358
         1         1         3         3         2         3     -0.00000746
         1         1         3         3         2         4     -0.00061341
         1         1         3         3         2         5     -0.00000000
         1         1         3         3         2         6      0.00021276
         1         1         3         3         2         7      0.00023177
         1         1         3         3         3         1      0.00001087
         1         1         3         3         3         2     -0.00000746
         1         1         3         3         3         3      0.00000916
         1         1         3         3         3         4     -0.00012389
         1         1         3         3         3         5     -0.00000000
         1         1         3         3         3         6      0.00003976
         1         1         3         3         3         7      0.00005468
         1         1         3         3         4         1     -0.00040533
         1         1         3         3         4         2     -0.00061341
         1         1         3         3         4         3     -0.00012389
         1         1         3         3         4         4     -0.00208243
         1         1         3         3         4         5     -0.00000000
         1         1         3         3         4         6      0.00068919
         1         1         3         3         4         7      0.00078223
         1         1         3         3         5         1     -0.00000000
         1         1         3         3         5         2     -0.00000000
         1         1         3         3         5         3     -0.00000000
         1         1         3         3         5         4     -0.00000000
         1         1         3         3         5         5      0.00000517
         1         1         3         3         5         6      0.00000000
         1         1         3         3         5         7      0.00000000
         1         1         3         3         6         1      0.00014796
         1         1         3         3         6         2      0.00021276
         1         1         3         3         6         3      0.00003976
         1         1         3         3         6         4      0.00068919
         1         1         3         3         6         5      0.00000000
         1         1         3         3         6         6     -0.00026361
         1         1         3         3         6         7     -0.00023186
         1         1         3         3         7         1      0.00015541
         1         1         3         3         7         2      0.00023177
         1         1         3         3         7         3      0.00005468
         1         1         3         3         7         4      0.00078223
         1         1         3         3         7         5      0.00000000
         1         1         3         3         7         6     -0.00023186
         1         1         3         3         7         7     -0.00030705
         1         1         4         4         1         1      0.00000956
         1         1         4         4         1         2      0.00000326
         1         1         4         4         1         3     -0.00000618
         1         1         4         4         2         1      0.00000326
         1         1         4         4         2         2      0.00000629
         1         1         4         4         2         3     -0.00000659
         1         1         4         4         3         1     -0.00000618
         1         1         4         4         3         2     -0.00000659
         1         1         4         4         3         3     -0.00004885
         1         1         5         5         1         1     -0.00036397
         1         1         5         5         1         2      0.00041540
         1         1         5         5         1         3     -0.00033696
         1         1         5         5         1         4     -0.00055175
         1         1         5         5         1         5     -0.00000000
         1         1         5         5         1         6      0.00093125
         1         1         5         5         1         7     -0.00045434
         1         1         5         5         1         8     -0.00000000
         1         1         5         5         1         9      0.00006670
         1         1         5         5         1        10      0.00000000
         1         1         5         5         1        11      0.00008075
         1         1         5         5         1        12     -0.00228805
         1         1         5         5         2         1      0.00041540
         1         1         5         5         2         2     -0.00045919
         1         1         5         5         2         3      0.00035942
         1         1         5         5         2         4      0.00060472
         1         1         5         5         2         5     -0.00000000
         1         1         5         5         2         6     -0.00097674
         1         1         5         5         2         7      0.00052237
         1         1         5         5         2         8     -0.00000000
         1         1         5         5         2         9     -0.00009564
         1         1         5         5         2        10     -0.00000000
         1         1         5         5         2        11     -0.00013073
         1         1         5         5         2        12      0.00244257
         1         1         5         5         3         1     -0.00033696
         1         1         5         5         3         2      0.00035942
         1         1         5         5         3         3     -0.00028416
         1         1         5         5         3         4     -0.00043233
         1         1         5         5         3         5     -0.00000000
         1         1         5         5         3         6      0.00076514
         1         1         5         5         3         7     -0.00025897
         1         1         5         5         3         8     -0.00000000
         1         1         5         5         3         9     -0.00002003
         1         1         5         5         3        10      0.00000000
         1         1         5         5         3        11     -0.00007811
         1         1         5         5         3        12     -0.00177917
         1         1         5         5         4         1     -0.00055175
         1         1         5         5         4         2      0.00060472
         1         1         5         5         4         3     -0.00043233
         1         1         5         5         4         4     -0.00083439
         1         1         5         5         4         5     -0.00000000
         1         1         5         5         4         6      0.00114552
         1         1         5         5         4         7     -0.00094438
         1         1         5         5         4         8     -0.00000000
         1         1         5         5         4         9      0.00030659
         1         1         5         5         4        10      0.00000000
         1         1         5         5         4        11      0.00053319
         1         1         5         5         4        12     -0.00325227
         1         1         5         5         5         1     -0.00000000
         1         1         5         5         5         2     -0.00000000
         1         1         5         5         5         3     -0.00000000
         1         1         5         5         5         4     -0.00000000
         1         1         5         5         5         5      0.00000459
         1         1         5         5         5         6     -0.00000000
         1         1         5         5         5         7      0.00000000
         1         1         5         5         5         8      0.00000169
         1         1         5         5         5         9     -0.00000000
         1         1         5         5         5        10     -0.00000346
         1         1         5         5         5        11     -0.00000000
         1         1         5         5         5        12      0.00000000
         1         1         5         5         6         1      0.00093125
         1         1         5         5         6         2     -0.00097674
         1         1         5         5         6         3      0.00076514
         1         1         5         5         6         4      0.00114552
         1         1         5         5         6         5     -0.00000000
         1         1         5         5         6         6     -0.00202744
         1         1         5         5         6         7      0.00063276
         1         1         5         5         6         8     -0.00000000
         1         1         5         5         6         9      0.00009503
         1         1         5         5         6        10      0.00000000
         1         1         5         5         6        11      0.00029587
         1         1         5         5         6        12      0.00463177
         1         1         5         5         7         1     -0.00045434
         1         1         5         5         7         2      0.00052237
         1         1         5         5         7         3     -0.00025897
         1         1         5         5         7         4     -0.00094438
         1         1         5         5         7         5      0.00000000
         1         1         5         5         7         6      0.00063276
         1         1         5         5         7         7     -0.00188080
         1         1         5         5         7         8      0.00000000
         1         1         5         5         7         9      0.00099836
         1         1         5         5         7        10      0.00000000
         1         1         5         5         7        11      0.00190938
         1         1         5         5         7        12     -0.00332980
         1         1         5         5         8         1     -0.00000000
         1         1         5         5         8         2     -0.00000000
         1         1         5         5         8         3     -0.00000000
         1         1         5         5         8         4     -0.00000000
         1         1         5         5         8         5      0.00000169
         1         1         5         5         8         6     -0.00000000
         1         1         5         5         8         7      0.00000000
         1         1         5         5         8         8     -0.00000535
         1         1         5         5         8         9     -0.00000000
         1         1         5         5         8        10      0.00002031
         1         1         5         5         8        11     -0.00000000
         1         1         5         5         8        12      0.00000000
         1         1         5         5         9         1      0.00006670
         1         1         5         5         9         2     -0.00009564
         1         1         5         5         9         3     -0.00002003
         1         1         5         5         9         4      0.00030659
         1         1         5         5         9         5     -0.00000000
         1         1         5         5         9         6      0.00009503
         1         1         5         5         9         7      0.00099836
         1         1         5         5         9         8     -0.00000000
         1         1         5         5         9         9     -0.00063277
         1         1         5         5         9        10      0.00000000
         1         1         5         5         9        11     -0.00123256
         1         1         5         5         9        12      0.00090462
         1         1         5         5        10         1      0.00000000
         1         1         5         5        10         2     -0.00000000
         1         1         5         5        10         3      0.00000000
         1         1         5         5        10         4      0.00000000
         1         1         5         5        10         5     -0.00000346
         1         1         5         5        10         6      0.00000000
         1         1         5         5        10         7      0.00000000
         1         1         5         5        10         8      0.00002031
         1         1         5         5        10         9      0.00000000
         1         1         5         5        10        10     -0.00004366
         1         1         5         5        10        11     -0.00000000
         1         1         5         5        10        12     -0.00000000
         1         1         5         5        11         1      0.00008075
         1         1         5         5        11         2     -0.00013073
         1         1         5         5        11         3     -0.00007811
         1         1         5         5        11         4      0.00053319
         1         1         5         5        11         5     -0.00000000
         1         1         5         5        11         6      0.00029587
         1         1         5         5        11         7      0.00190938
         1         1         5         5        11         8     -0.00000000
         1         1         5         5        11         9     -0.00123256
         1         1         5         5        11        10     -0.00000000
         1         1         5         5        11        11     -0.00256516
         1         1         5         5        11        12      0.00153138
         1         1         5         5        12         1     -0.00228805
         1         1         5         5        12         2      0.00244257
         1         1         5         5        12         3     -0.00177917
         1         1         5         5        12         4     -0.00325227
         1         1         5         5        12         5      0.00000000
         1         1         5         5        12         6      0.00463177
         1         1         5         5        12         7     -0.00332980
         1         1         5         5        12         8      0.00000000
         1         1         5         5        12         9      0.00090462
         1         1         5         5        12        10     -0.00000000
         1         1         5         5        12        11      0.00153138
         1         1         5         5        12        12     -0.01540653
         1         1         6         6         1         1     -0.00002004
         1         1         6         6         1         2     -0.00006200
         1         1         6         6         1         3     -0.00001561
         1         1         6         6         1         4     -0.00020856
         1         1         6         6         1         5      0.00000000
         1         1         6         6         1         6     -0.00008787
         1         1         6         6         1         7     -0.00009124
         1         1         6         6         2         1     -0.00006200
         1         1         6         6         2         2     -0.00018056
         1         1         6         6         2         3     -0.00004574
         1         1         6         6         2         4     -0.00060169
         1         1         6         6         2         5      0.00000000
         1         1         6         6         2         6     -0.00025180
         1         1         6         6         2         7     -0.00026637
         1         1         6         6         3         1     -0.00001561
         1         1         6         6         3         2     -0.00004574
         1         1         6         6         3         3     -0.00000822
         1         1         6         6         3         4     -0.00015062
         1         1         6         6         3         5      0.00000000
         1         1         6         6         3         6     -0.00006311
         1         1         6         6         3         7     -0.00007068
         1         1         6         6         4         1     -0.00020856
         1         1         6         6         4         2     -0.00060169
         1         1         6         6         4         3     -0.00015062
         1         1         6         6         4         4     -0.00197748
         1         1         6         6         4         5     -0.00000000
         1         1         6         6         4         6     -0.00082812
         1         1         6         6         4         7     -0.00089793
         1         1         6         6         5         1      0.00000000
         1         1         6         6         5         2      0.00000000
         1         1         6         6         5         3      0.00000000
         1         1         6         6         5         4     -0.00000000
         1         1         6         6         5         5      0.00000376
         1         1         6         6         5         6     -0.00000000
         1         1         6         6         5         7     -0.00000000
         1         1         6         6         6         1     -0.00008787
         1         1         6         6         6         2     -0.00025180
         1         1         6         6         6         3     -0.00006311
         1         1         6         6         6         4     -0.00082812
         1         1         6         6         6         5     -0.00000000
         1         1         6         6         6         6     -0.00035298
         1         1         6         6         6         7     -0.00035352
         1         1         6         6         7         1     -0.00009124
         1         1         6         6         7         2     -0.00026637
         1         1         6         6         7         3     -0.00007068
         1         1         6         6         7         4     -0.00089793
         1         1         6         6         7         5     -0.00000000
         1         1         6         6         7         6     -0.00035352
         1         1         6         6         7         7     -0.00046727
         1         1         7         7         1         1     -0.00002004
         1         1         7         7         1         2     -0.00006200
         1         1         7         7         1         3     -0.00001561
         1         1         7         7         1         4     -0.00020856
         1         1         7         7         1         5     -0.00000000
         1         1         7         7         1         6     -0.00008787
         1         1         7         7         1         7     -0.00009124
         1         1         7         7         2         1     -0.00006200
         1         1         7         7         2         2     -0.00018056
         1         1         7         7         2         3     -0.00004574
         1         1         7         7         2         4     -0.00060169
         1         1         7         7         2         5     -0.00000000
         1         1         7         7         2         6     -0.00025180
         1         1         7         7         2         7     -0.00026637
         1         1         7         7         3         1     -0.00001561
         1         1         7         7         3         2     -0.00004574
         1         1         7         7         3         3     -0.00000822
         1         1         7         7         3         4     -0.00015062
         1         1         7         7         3         5     -0.00000000
         1         1         7         7         3         6     -0.00006311
         1         1         7         7         3         7     -0.00007068
         1         1         7         7         4         1     -0.00020856
         1         1         7         7         4         2     -0.00060169
         1         1         7         7         4         3     -0.00015062
         1         1         7         7         4         4     -0.00197748
         1         1         7         7         4         5      0.00000000
         1         1         7         7         4         6     -0.00082812
         1         1         7         7         4         7     -0.00089793
         1         1         7         7         5         1     -0.00000000
         1         1         7         7         5         2     -0.00000000
         1         1         7         7         5         3     -0.00000000
         1         1         7         7         5         4      0.00000000
         1         1         7         7         5         5      0.00000376
         1         1         7         7         5         6      0.00000000
         1         1         7         7         5         7      0.00000000
         1         1         7         7         6         1     -0.00008787
         1         1         7         7         6         2     -0.00025180
         1         1         7         7         6         3     -0.00006311
         1         1         7         7         6         4     -0.00082812
         1         1         7         7         6         5      0.00000000
         1         1         7         7         6         6     -0.00035298
         1         1         7         7         6         7     -0.00035352
         1         1         7         7         7         1     -0.00009124
         1         1         7         7         7         2     -0.00026637
         1         1         7         7         7         3     -0.00007068
         1         1         7         7         7         4     -0.00089793
         1         1         7         7         7         5      0.00000000
         1         1         7         7         7         6     -0.00035352
         1         1         7         7         7         7     -0.00046727
         1         1         8         8         1         1      0.00000459
         1         1         8         8         1         2      0.00000169
         1         1         8         8         1         3     -0.00000346
         1         1         8         8         2         1      0.00000169
         1         1         8         8         2         2     -0.00000535
         1         1         8         8         2         3      0.00002031
         1         1         8         8         3         1     -0.00000346
         1         1         8         8         3         2      0.00002031
         1         1         8         8         3         3     -0.00004366
         2         1         1         1         1         1     -0.00042711
         2         1         1         1         1         2      0.00061281
         2         1         1         1         1         3      0.00057253
         2         1         1         1         1         4      0.00000000
         2         1         1         1         1         5     -0.00073081
         2         1         1         1         1         6     -0.00108756
         2         1         1         1         1         7      0.00000000
         2         1         1         1         1         8      0.00100334
         2         1         1         1         1         9     -0.00000000
         2         1         1         1         1        10      0.00014740
         2         1         1         1         1        11     -0.00003194
         2         1         1         1         2         1      0.00061627
         2         1         1         1         2         2     -0.00085947
         2         1         1         1         2         3     -0.00094656
         2         1         1         1         2         4     -0.00000000
         2         1         1         1         2         5      0.00109198
         2         1         1         1         2         6      0.00162590
         2         1         1         1         2         7     -0.00000000
         2         1         1         1         2         8     -0.00164203
         2         1         1         1         2         9      0.00000000
         2         1         1         1         2        10     -0.00015102
         2         1         1         1         2        11      0.00024319
         2         1         1         1         3         1      0.00036354
         2         1         1         1         3         2     -0.00063428
         2         1         1         1         3         3      0.00001736
         2         1         1         1         3         4      0.00000000
         2         1         1         1         3         5      0.00053872
         2         1         1         1         3         6      0.00081328
         2         1         1         1         3         7     -0.00000000
         2         1         1         1         3         8     -0.00024082
         2         1         1         1         3         9     -0.00000000
         2         1         1         1         3        10     -0.00009494
         2         1         1         1         3        11     -0.00081374
         2         1         1         1         4         1      0.00000000
         2         1         1         1         4         2     -0.00000000
         2         1         1         1         4         3      0.00000000
         2         1         1         1         4         4     -0.00004803
         2         1         1         1         4         5     -0.00000000
         2         1         1         1         4         6     -0.00000000
         2         1         1         1         4         7     -0.00004801
         2         1         1         1         4         8     -0.00000000
         2         1         1         1         4         9     -0.00020656
         2         1         1         1         4        10      0.00000000
         2         1         1         1         4        11     -0.00000000
         2         1         1         1         5         1     -0.00055531
         2         1         1         1         5         2      0.00081722
         2         1         1         1         5         3      0.00069660
         2         1         1         1         5         4     -0.00000000
         2         1         1         1         5         5     -0.00099385
         2         1         1         1         5         6     -0.00147718
         2         1         1         1         5         7      0.00000000
         2         1         1         1         5         8      0.00137568
         2         1         1         1         5         9      0.00000000
         2         1         1         1         5        10     -0.00001668
         2         1         1         1         5        11      0.00003279
         2         1         1         1         6         1     -0.00034608
         2         1         1         1         6         2      0.00049529
         2         1         1         1         6         3      0.00055185
         2         1         1         1         6         4     -0.00000000
         2         1         1         1         6         5     -0.00066949
         2         1         1         1         6         6     -0.00110644
         2         1         1         1         6         7     -0.00000000
         2         1         1         1         6         8      0.00109148
         2         1         1         1         6         9     -0.00000000
         2         1         1         1         6        10      0.00004738
         2         1         1         1         6        11     -0.00001006
         2         1         1         1         7         1      0.00000000
         2         1         1         1         7         2     -0.00000000
         2         1         1         1         7         3     -0.00000000
         2         1         1         1         7         4     -0.00003480
         2         1         1         1         7         5      0.00000000
         2         1         1         1         7         6     -0.00000000
         2         1         1         1         7         7     -0.00007601
         2         1         1         1         7         8     -0.00000000
         2         1         1         1         7         9     -0.00013803
         2         1         1         1         7        10      0.00000000
         2         1         1         1         7        11      0.00000000
         2         1         1         1         8         1      0.00010388
         2         1         1         1         8         2     -0.00027008
         2         1         1         1         8         3      0.00034820
         2         1         1         1         8         4     -0.00000000
         2         1         1         1         8         5      0.00013435
         2         1         1         1         8         6      0.00017713
         2         1         1         1         8         7     -0.00000000
         2         1         1         1         8         8      0.00033942
         2         1         1         1         8         9      0.00000000
         2         1         1         1         8        10      0.00010111
         2         1         1         1         8        11     -0.00102799
         2         1         1         1         9         1     -0.00000000
         2         1         1         1         9         2      0.00000000
         2         1         1         1         9         3     -0.00000000
         2         1         1         1         9         4     -0.00005918
         2         1         1         1         9         5      0.00000000
         2         1         1         1         9         6     -0.00000000
         2         1         1         1         9         7     -0.00005972
         2         1         1         1         9         8      0.00000000
         2         1         1         1         9         9     -0.00034448
         2         1         1         1         9        10     -0.00000000
         2         1         1         1         9        11      0.00000000
         2         1         1         1        10         1     -0.00028608
         2         1         1         1        10         2      0.00043792
         2         1         1         1        10         3      0.00032478
         2         1         1         1        10         4      0.00000000
         2         1         1         1        10         5     -0.00054270
         2         1         1         1        10         6     -0.00071862
         2         1         1         1        10         7      0.00000000
         2         1         1         1        10         8      0.00070459
         2         1         1         1        10         9     -0.00000000
         2         1         1         1        10        10     -0.00036663
         2         1         1         1        10        11     -0.00016776
         2         1         1         1        11         1     -0.00019687
         2         1         1         1        11         2      0.00056770
         2         1         1         1        11         3     -0.00106567
         2         1         1         1        11         4     -0.00000000
         2         1         1         1        11         5     -0.00010967
         2         1         1         1        11         6      0.00006254
         2         1         1         1        11         7      0.00000000
         2         1         1         1        11         8     -0.00161732
         2         1         1         1        11         9      0.00000000
         2         1         1         1        11        10     -0.00040938
         2         1         1         1        11        11      0.00331544
         2         1         2         2         1         1     -0.00050165
         2         1         2         2         1         2     -0.00074583
         2         1         2         2         1         3     -0.00018472
         2         1         2         2         1         4     -0.00146632
         2         1         2         2         1         5      0.00000000
         2         1         2         2         1         6      0.00026394
         2         1         2         2         1         7      0.00047872
         2         1         2         2         2         1     -0.00068684
         2         1         2         2         2         2     -0.00103850
         2         1         2         2         2         3     -0.00024742
         2         1         2         2         2         4     -0.00218530
         2         1         2         2         2         5      0.00000000
         2         1         2         2         2         6      0.00040106
         2         1         2         2         2         7      0.00074032
         2         1         2         2         3         1     -0.00024470
         2         1         2         2         3         2     -0.00034746
         2         1         2         2         3         3     -0.00014044
         2         1         2         2         3         4     -0.00062857
         2         1         2         2         3         5      0.00000000
         2         1         2         2         3         6     -0.00006924
         2         1         2         2         3         7      0.00030260
         2         1         2         2         4         1     -0.00046049
         2         1         2         2         4         2     -0.00075287
         2         1         2         2         4         3     -0.00015786
         2         1         2         2         4         4     -0.00195685
         2         1         2         2         4         5      0.00000000
         2         1         2         2         4         6      0.00039540
         2         1         2         2         4         7      0.00070078
         2         1         2         2         5         1      0.00000000
         2         1         2         2         5         2      0.00000000
         2         1         2         2         5         3      0.00000000
         2         1         2         2         5         4      0.00000000
         2         1         2         2         5         5     -0.00003231
         2         1         2         2         5         6     -0.00000000
         2         1         2         2         5         7     -0.00000000
         2         1         2         2         6         1     -0.00021794
         2         1         2         2         6         2     -0.00028457
         2         1         2         2         6         3     -0.00016273
         2         1         2         2         6         4     -0.00040560
         2         1         2         2         6         5     -0.00000000
         2         1         2         2         6         6     -0.00032155
         2         1         2         2         6         7      0.00028398
         2         1         2         2         7         1      0.00012851
         2         1         2         2         7         2      0.00021137
         2         1         2         2         7         3      0.00006296
         2         1         2         2         7         4      0.00056569
         2         1         2         2         7         5     -0.00000000
         2         1         2         2         7         6     -0.00005503
         2         1         2         2         7         7     -0.00028678
         2         1         3         3         1         1     -0.00050165
         2         1         3         3         1         2     -0.00074583
         2         1         3         3         1         3     -0.00018472
         2         1         3         3         1         4     -0.00146632
         2         1         3         3         1         5     -0.00000000
         2         1         3         3         1         6      0.00026394
         2         1         3         3         1         7      0.00047872
         2         1         3         3         2         1     -0.00068684
         2         1         3         3         2         2     -0.00103850
         2         1         3         3         2         3     -0.00024742
         2         1         3         3         2         4     -0.00218530
         2         1         3         3         2         5     -0.00000000
         2         1         3         3         2         6      0.00040106
         2         1         3         3         2         7      0.00074032
         2         1         3         3         3         1     -0.00024470
         2         1         3         3         3         2     -0.00034746
         2         1         3         3         3         3     -0.00014044
         2         1         3         3         3         4     -0.00062857
         2         1         3         3         3         5     -0.00000000
         2         1         3         3         3         6     -0.00006924
         2         1         3         3         3         7      0.00030260
         2         1         3         3         4         1     -0.00046049
         2         1         3         3         4         2     -0.00075287
         2         1         3         3         4         3     -0.00015786
         2         1         3         3         4         4     -0.00195685
         2         1         3         3         4         5     -0.00000000
         2         1         3         3         4         6      0.00039540
         2         1         3         3         4         7      0.00070078
         2         1         3         3         5         1     -0.00000000
         2         1         3         3         5         2     -0.00000000
         2         1         3         3         5         3     -0.00000000
         2         1         3         3         5         4     -0.00000000
         2         1         3         3         5         5     -0.00003231
         2         1         3         3         5         6      0.00000000
         2         1         3         3         5         7      0.00000000
         2         1         3         3         6         1     -0.00021794
         2         1         3         3         6         2     -0.00028457
         2         1         3         3         6         3     -0.00016273
         2         1         3         3         6         4     -0.00040560
         2         1         3         3         6         5      0.00000000
         2         1         3         3         6         6     -0.00032155
         2         1         3         3         6         7      0.00028398
         2         1         3         3         7         1      0.00012851
         2         1         3         3         7         2      0.00021137
         2         1         3         3         7         3      0.00006296
         2         1         3         3         7         4      0.00056569
         2         1         3         3         7         5      0.00000000
         2         1         3         3         7         6     -0.00005503
         2         1         3         3         7         7     -0.00028678
         2         1         4         4         1         1     -0.00004803
         2         1         4         4         1         2     -0.00004801
         2         1         4         4         1         3     -0.00020656
         2         1         4         4         2         1     -0.00003480
         2         1         4         4         2         2     -0.00007601
         2         1         4         4         2         3     -0.00013803
         2         1         4         4         3         1     -0.00005918
         2         1         4         4         3         2     -0.00005972
         2         1         4         4         3         3     -0.00034448
         2         1         5         5         1         1      0.00011789
         2         1         5         5         1         2     -0.00012826
         2         1         5         5         1         3     -0.00000142
[...]
         3         2         5         1         4         6     -0.00011905
         3         2         5         1         4         7      0.00000000
         3         2         5         1         4         8     -0.00048162
         3         2         5         1         4         9     -0.00000000
         3         2         5         1         4        10     -0.00013611
         3         2         5         1         4        11      0.00116872
         3         2         5         1         5         1     -0.00000000
         3         2         5         1         5         2      0.00000000
         3         2         5         1         5         3     -0.00000000
         3         2         5         1         5         4     -0.00004000
         3         2         5         1         5         5      0.00000000
         3         2         5         1         5         6      0.00000000
         3         2         5         1         5         7     -0.00001868
         3         2         5         1         5         8     -0.00000000
         3         2         5         1         5         9     -0.00004813
         3         2         5         1         5        10     -0.00000000
         3         2         5         1         5        11      0.00000000
         3         2         5         1         6         1      0.00083530
         3         2         5         1         6         2     -0.00136338
         3         2         5         1         6         3     -0.00007925
         3         2         5         1         6         4     -0.00000000
         3         2         5         1         6         5      0.00104248
         3         2         5         1         6         6      0.00084901
         3         2         5         1         6         7      0.00000000
         3         2         5         1         6         8      0.00042298
         3         2         5         1         6         9      0.00000000
         3         2         5         1         6        10      0.00046455
         3         2         5         1         6        11     -0.00152276
         3         2         5         1         7         1      0.00087193
         3         2         5         1         7         2     -0.00114204
         3         2         5         1         7         3     -0.00113504
         3         2         5         1         7         4      0.00000000
         3         2         5         1         7         5      0.00110004
         3         2         5         1         7         6      0.00074823
         3         2         5         1         7         7      0.00000000
         3         2         5         1         7         8     -0.00058572
         3         2         5         1         7         9     -0.00000000
         3         2         5         1         7        10      0.00031442
         3         2         5         1         7        11      0.00101547
         3         2         5         1         8         1     -0.00000000
         3         2         5         1         8         2      0.00000000
         3         2         5         1         8         3     -0.00000000
         3         2         5         1         8         4      0.00007187
         3         2         5         1         8         5      0.00000000
         3         2         5         1         8         6     -0.00000000
         3         2         5         1         8         7      0.00001711
         3         2         5         1         8         8      0.00000000
         3         2         5         1         8         9      0.00012982
         3         2         5         1         8        10     -0.00000000
         3         2         5         1         8        11      0.00000000
         3         2         5         1         9         1     -0.00049883
         3         2         5         1         9         2      0.00068761
         3         2         5         1         9         3      0.00051659
         3         2         5         1         9         4     -0.00000000
         3         2         5         1         9         5     -0.00061382
         3         2         5         1         9         6     -0.00049123
         3         2         5         1         9         7      0.00000000
         3         2         5         1         9         8      0.00017137
         3         2         5         1         9         9      0.00000000
         3         2         5         1         9        10     -0.00015827
         3         2         5         1         9        11     -0.00021536
         3         2         5         1        10         1     -0.00000000
         3         2         5         1        10         2      0.00000000
         3         2         5         1        10         3     -0.00000000
         3         2         5         1        10         4     -0.00019951
         3         2         5         1        10         5      0.00000000
         3         2         5         1        10         6      0.00000000
         3         2         5         1        10         7     -0.00014842
         3         2         5         1        10         8     -0.00000000
         3         2         5         1        10         9     -0.00033117
         3         2         5         1        10        10      0.00000000
         3         2         5         1        10        11     -0.00000000
         3         2         5         1        11         1     -0.00117032
         3         2         5         1        11         2      0.00177308
         3         2         5         1        11         3      0.00103400
         3         2         5         1        11         4      0.00000000
         3         2         5         1        11         5     -0.00178086
         3         2         5         1        11         6     -0.00129392
         3         2         5         1        11         7     -0.00000000
         3         2         5         1        11         8      0.00043492
         3         2         5         1        11         9      0.00000000
         3         2         5         1        11        10     -0.00103281
         3         2         5         1        11        11     -0.00034219
         3         2         5         1        12         1     -0.00029327
         3         2         5         1        12         2      0.00062901
         3         2         5         1        12         3     -0.00058173
         3         2         5         1        12         4      0.00000000
         3         2         5         1        12         5     -0.00033410
         3         2         5         1        12         6     -0.00028521
         3         2         5         1        12         7      0.00000000
         3         2         5         1        12         8     -0.00095803
         3         2         5         1        12         9      0.00000000
         3         2         5         1        12        10     -0.00032665
         3         2         5         1        12        11      0.00332467
         3         2         6         2         1         1     -0.00018014
         3         2         6         2         1         2     -0.00026889
         3         2         6         2         1         3     -0.00006437
         3         2         6         2         1         4     -0.00023001
         3         2         6         2         1         5      0.00000000
         3         2         6         2         1         6     -0.00002416
         3         2         6         2         1         7      0.00006056
         3         2         6         2         2         1     -0.00059998
         3         2         6         2         2         2     -0.00088606
         3         2         6         2         2         3     -0.00022639
         3         2         6         2         2         4     -0.00074512
         3         2         6         2         2         5     -0.00000000
         3         2         6         2         2         6     -0.00010888
         3         2         6         2         2         7      0.00020101
         3         2         6         2         3         1     -0.00015999
         3         2         6         2         3         2     -0.00023620
         3         2         6         2         3         3     -0.00008680
         3         2         6         2         3         4     -0.00019507
         3         2         6         2         3         5     -0.00000000
         3         2         6         2         3         6     -0.00006439
         3         2         6         2         3         7      0.00006574
         3         2         6         2         4         1     -0.00139561
         3         2         6         2         4         2     -0.00209722
         3         2         6         2         4         3     -0.00056553
         3         2         6         2         4         4     -0.00189707
         3         2         6         2         4         5     -0.00000000
         3         2         6         2         4         6     -0.00028305
         3         2         6         2         4         7      0.00055166
         3         2         6         2         5         1     -0.00000000
         3         2         6         2         5         2     -0.00000000
         3         2         6         2         5         3     -0.00000000
         3         2         6         2         5         4     -0.00000000
         3         2         6         2         5         5     -0.00003429
         3         2         6         2         5         6      0.00000000
         3         2         6         2         5         7      0.00000000
         3         2         6         2         6         1     -0.00043787
         3         2         6         2         6         2     -0.00065673
         3         2         6         2         6         3     -0.00008806
         3         2         6         2         6         4     -0.00062445
         3         2         6         2         6         5     -0.00000000
         3         2         6         2         6         6      0.00004969
         3         2         6         2         6         7      0.00011850
         3         2         6         2         7         1     -0.00063131
         3         2         6         2         7         2     -0.00098665
         3         2         6         2         7         3     -0.00044506
         3         2         6         2         7         4     -0.00094942
         3         2         6         2         7         5     -0.00000000
         3         2         6         2         7         6     -0.00050930
         3         2         6         2         7         7      0.00037641
         3         2         7         3         1         1     -0.00018014
         3         2         7         3         1         2     -0.00026889
         3         2         7         3         1         3     -0.00006437
         3         2         7         3         1         4     -0.00023001
         3         2         7         3         1         5     -0.00000000
         3         2         7         3         1         6     -0.00002416
         3         2         7         3         1         7      0.00006056
         3         2         7         3         2         1     -0.00059998
         3         2         7         3         2         2     -0.00088606
         3         2         7         3         2         3     -0.00022639
         3         2         7         3         2         4     -0.00074512
         3         2         7         3         2         5      0.00000000
         3         2         7         3         2         6     -0.00010888
         3         2         7         3         2         7      0.00020101
         3         2         7         3         3         1     -0.00015999
         3         2         7         3         3         2     -0.00023620
         3         2         7         3         3         3     -0.00008680
         3         2         7         3         3         4     -0.00019507
         3         2         7         3         3         5      0.00000000
         3         2         7         3         3         6     -0.00006439
         3         2         7         3         3         7      0.00006574
         3         2         7         3         4         1     -0.00139561
         3         2         7         3         4         2     -0.00209722
         3         2         7         3         4         3     -0.00056553
         3         2         7         3         4         4     -0.00189707
         3         2         7         3         4         5      0.00000000
         3         2         7         3         4         6     -0.00028305
         3         2         7         3         4         7      0.00055166
         3         2         7         3         5         1      0.00000000
         3         2         7         3         5         2      0.00000000
         3         2         7         3         5         3      0.00000000
         3         2         7         3         5         4      0.00000000
         3         2         7         3         5         5     -0.00003429
         3         2         7         3         5         6     -0.00000000
         3         2         7         3         5         7     -0.00000000
         3         2         7         3         6         1     -0.00043787
         3         2         7         3         6         2     -0.00065673
         3         2         7         3         6         3     -0.00008806
         3         2         7         3         6         4     -0.00062445
         3         2         7         3         6         5      0.00000000
         3         2         7         3         6         6      0.00004969
         3         2         7         3         6         7      0.00011850
         3         2         7         3         7         1     -0.00063131
         3         2         7         3         7         2     -0.00098665
         3         2         7         3         7         3     -0.00044506
         3         2         7         3         7         4     -0.00094942
         3         2         7         3         7         5      0.00000000
         3         2         7         3         7         6     -0.00050930
         3         2         7         3         7         7      0.00037641
         3         2         8         4         1         1     -0.00004000
         3         2         8         4         1         2     -0.00001868
         3         2         8         4         1         3     -0.00004813
         3         2         8         4         2         1      0.00007187
         3         2         8         4         2         2      0.00001711
         3         2         8         4         2         3      0.00012982
         3         2         8         4         3         1     -0.00019951
         3         2         8         4         3         2     -0.00014842
         3         2         8         4         3         3     -0.00033117


 RESULTS
 =======

  Reference energy                    -14.870847900262

  Correlated core orbitals:             1.1       1.5
  Orbital energies:                    -2.4479   -2.4476

  BCCD core-core energy                -0.025763455943
  BCCD core-valence energy             -0.002501308157
  BCCD valence correlation energy      -0.031808755414

  BCCD singlet pair energy             -0.059434571630
  BCCD triplet pair energy             -0.000638947883
  BCCD correlation energy              -0.060073519513

 !BCCD total energy                   -14.930921419775

 Approximate expectation values using Brueckner orbitals

 !BCCD(ref) STATE  1.1 Dipole momen     0.00000000     0.00000000     0.00000000
 Dipole moment /Debye                   0.00000000     0.00000000     0.00000000

 Brueckner orbitals saved on record           2150.2 (orbital set 1)
 Brueckner density (ref) saved on record      2150.2 (density set 1)

 Brueckner orbitals
 ==================

   Orb     Occ           Coefficients

                         1 1s      1 1s      1 1s      1 1s      1 2pz     1 2pz     1 2pz     1 3d0     1 3d2+    1 3d0  
                         1 3d2+    1 4f0     1 4f2+ 

   1.1    2.0000000    0.995536 -0.011119 -0.003612  0.010882 -0.039213  0.032024  0.013845 -0.000526  0.000000  0.008403
                       0.000000  0.003946 -0.000000

   2.1    2.0000000   -0.011640  0.993564 -0.119492 -0.155717  0.384283 -0.116802 -0.130705  0.007524  0.000000  0.000149
                      -0.000000 -0.001390 -0.000000

                         1 1s      1 1s      1 1s      1 1s      1 2pz     1 2pz     1 2pz     1 3d0     1 3d2+    1 3d0  
                         1 3d2+    1 4f0     1 4f2+ 

   1.5    2.0000000    0.992708 -0.025508  0.019410  0.024564 -0.032882  0.028836  0.013247 -0.002930 -0.000000  0.002364
                       0.000000 -0.001844  0.000000

 Timing summary (sec):

 STEP                 CPU(USER)    SYS     CPU(TOT)    WALL
 Transformation          0.13      0.02      0.15      0.14
 CCSD iterations         0.29      0.08      0.37      0.39

 Program statistics:

 Available memory in ccsd:                39999164
 Min. memory needed in ccsd:                 14528
 Max. memory used in ccsd:                   15848
 Max. memory used in cckext:                 44632 (33 integral passes)



 **********************************************************************************************************************************
 DATASETS  * FILE   NREC   LENGTH (MB)   RECORD NAMES
              1      20       31.06       500      700      610      900      950      970     1000      129      960     1100   
                                          VAR     GEOM    BASINP   SYMINP    ZMAT    AOBASIS   BASIS     P2S    ABASIS      S 
                                         1400     1410     1200     1210     1080     1600     1650     1300     1700     1380   
                                           T        V       H0       H01     AOSYM     SMH    MOLCAS    ERIS     OPER     JKOP   

              2       4        2.76       700     1000      520     2150   
                                         GEOM     BASIS   MCVARS    BCCD   

              3       5       14.79       500      610      700     1000     2100   
                                          VAR    BASINP    GEOM     BASIS     RHF  

 PROGRAMS   *        TOTAL      BCCD       INT   RESTART
 CPU TIMES  *         0.87      0.47      0.31      0.01
 REAL TIME  *         1.13 SEC
 DISK USED  *        51.14 MB
 **********************************************************************************************************************************

 Dump information in style XML to orbitals.xml                                                                    

 Variables will not be exported.
 Molecular orbitals read from record     2150.2  Type=BCCD/BRUECKNER (state 1.1)
 Occupation numbers read from record     2150.2  Type=BCCD/BRUECKNER (state 1.1)

 No orbital energies found for orbital set 0

 No redundancy group numbers found for orbital set 0

 **********************************************************************************************************************************

 BCCD/cc-pVTZ energy=    -14.930921419775

            BCCD
    -14.93092142
 **********************************************************************************************************************************
 Molpro calculation terminated
