
 Primary working directories    : /scr/yuriaoto/job.023687/molpro.zshJ30sb6p
 Secondary working directories  : /scr/yuriaoto/job.023687/molpro.zshJ30sb6p
 Wavefunction directory         : /scr/yuriaoto/job.023687/
 Main file repository           : /scr/yuriaoto/job.023687/molpro.zshJ30sb6p/

 id        : yuriaoto

 Nodes             nprocs
 t-rex.ufabc.int.br    1

 Using customized tuning parameters: mindgm=8; mindgv=16; mindgc=1; mindgr=1; noblas=0; minvec=7
 default implementation of scratch files=df  


 Variables initialized (933), CPU time= 0.00 sec
 ***,
 memory,40,m
 gprint,orbital,basis,civector
 gthresh,printci=0.0,thrprint=0
 file,3,wfu.dat,old
 
 {bccd,SAVEORB=2150.2,print,CC_NORM_MAX=10.0
 thresh,printci=0.0,ENERGY=1.0E-10,COEFF=1.0E-12
 print,ref=1
 wf,6,1,0;
 }
 
 {put,xml,orbitals.xml; orbital,2150.2; nosort; novariables}
 
 Commands  initialized (760), CPU time= 0.01 sec, 617 directives.
 Default parameters read. Elapsed time= 0.04 sec

 Checking input...
 Passed
1


                                         ***  PROGRAM SYSTEM MOLPRO  ***
                                       Copyright, TTI GmbH Stuttgart, 2015
                                    Version 2019.2 linked Abr  7 2019 15:10:35


 **********************************************************************************************************************************
 LABEL *                                                                                 
  64 bit serial version                                                                  DATE: 05-Jun-20          TIME: 23:32:26  
 **********************************************************************************************************************************

 SHA1:             3a8a58c585c929645742fb5a1b7541a4ad1da699
 **********************************************************************************************************************************


 THRESHOLDS:

 ZERO    =  1.00D-12  ONEINT  =  1.00D-12  TWOINT  =  1.00D-11  PREFAC  =  1.00D-14  XXXXXX  =  1.00D-09  EORDER  =  1.00D-04
 ENERGY  =  0.00D+00  ETEST   =  0.00D+00  EDENS   =  0.00D+00  THRDEDEF=  1.00D-06  GRADIENT=  1.00D-02  STEP    =  1.00D-03
 ORBITAL =  1.00D-05  CIVEC   =  1.00D-05  COEFF   =  1.00D-04  PRINTCI =  0.00D+00  PUNCHCI =  9.90D+01  OPTGRAD =  3.00D-04
 OPTENERG=  1.00D-06  OPTSTEP =  3.00D-04  THRGRAD =  1.00D-10  COMPRESS=  1.00D-11  VARMIN  =  1.00D-07  VARMAX  =  1.00D-03
 THRDOUB =  0.00D+00  THRDIV  =  1.00D-05  THRRED  =  1.00D-07  THRPSP  =  1.00D+00  THRDC   =  1.00D-10  THRCS   =  1.00D-10
 THRNRM  =  1.00D-08  THREQ   =  0.00D+00  THRDE   =  1.00D+00  THRREF  =  1.00D-05  SPARFAC =  1.00D+00  THRDLP  =  1.00D-07
 THRDIA  =  1.00D-10  THRDLS  =  1.00D-07  THRGPS  =  0.00D+00  THRKEX  =  0.00D+00  THRDIS  =  2.00D-01  THRVAR  =  1.00D-10
 THRLOC  =  1.00D-06  THRGAP  =  1.00D-06  THRLOCT = -1.00D+00  THRGAPT = -1.00D+00  THRORB  =  1.00D-06  THRMLTP =  0.00D+00
 THRCPQCI=  1.00D-10  KEXTA   =  0.00D+00  THRCOARS=  0.00D+00  SYMTOL  =  1.00D-06  GRADTOL =  1.00D-06  THROVL  =  1.00D-08
 THRORTH =  1.00D-08  GRID    =  1.00D-06  GRIDMAX =  1.00D-03  DTMAX   =  0.00D+00  THROCCDE=  1.00D-01  THROCCDE=  1.00D-01
 THRPRINT=  0.00D+00


 Variable memory set to   40000000 words,  buffer space 



 Permanent file  3  wfu.dat  assigned.  Implementation=df    Size= 14.10 MB


 PROGRAM * RESTART 


 Reading variables from file 3

 _FNUC           =      0.00000000
 _BASIS          =    CC-PVTZ
 _NELEC          =      6.00000000
 _PROGRAM        =    RHF-SCF
 _DMX_SCF        =      0.00000000
 _DMY_SCF        =      0.00000000
 _DMZ_SCF        =      0.00000000
 _HOMO           =      2.10000000
 _EHOMO          =     -0.18224319
 _LUMO           =      2.50000000
 _ELUMO          =      0.00671464
 _ENERGY         =    -14.87113611
 _ENERGY_METHOD  =    RHF
 _ENERGY_BASIS   =    cc-pVTZ
 _ENUC           =      1.80000000
 _EPS1(1:13)     =     -2.45288987    -0.18224319     0.03854712     0.10701166     0.14531626     0.20132214
                        0.29578721     0.48884990     0.54279194     0.67005534     0.71011391     0.76079758
                        3.02244577
 _EPS2(1:7)      =      0.02716422     0.11604575     0.23979625     0.45701108     0.51087424     0.65663878
                        0.75753063
 _EPS3(1:7)      =      0.02716422     0.11604575     0.23979625     0.45701108     0.51087424     0.65663878
                        0.75753063
 _EPS4(1:3)      =      0.20132214     0.54279194     0.71011391
 _EPS5(1:13)     =     -2.45251703     0.00671464     0.06418201     0.15568446     0.23456666     0.26036282
                        0.39933341     0.51839623     0.69667587     0.74973264     0.77175124     1.01349064
                        3.16580891
 _EPS6(1:7)      =      0.05594314     0.16306709     0.32645184     0.46064971     0.59133328     0.71550490
                        0.96090549
 _EPS7(1:7)      =      0.05594314     0.16306709     0.32645184     0.46064971     0.59133328     0.71550490
                        0.96090549
 _EPS8(1:3)      =      0.26036282     0.69667587     0.77175124
 _IPROC_MPP      =      0.00000000
 _IPROC_MPPX     =      0.00000000
 _ORBITAL        =   2100.30000000
 _STATUS         =      1.00000000
 _DATE           =    10-Feb-20
 _LASTORB        =    RHF
 _OUTPUT         =    /scr/yuriaoto/job.022757/RHF.xml
 _PGROUP         =    D2h 
 _TIME           =    10:55:45
 R               =      5.00000000

 Geometry written to block  1 of record 700


 **********************************************************************************************************************************
 DATASETS  * FILE   NREC   LENGTH (MB)   RECORD NAMES
              3       5       14.79       500      610      700     1000     2100   
                                          VAR    BASINP    GEOM     BASIS     RHF  

 PROGRAMS   *        TOTAL   RESTART
 CPU TIMES  *         0.12      0.02
 REAL TIME  *         0.15 SEC
 DISK USED  *        26.86 MB
 **********************************************************************************************************************************


 Recomputing integrals since basis changed


 Using spherical harmonics

 Library entry LI     S cc-pVTZ              selected for orbital group  1
 Library entry LI     P cc-pVTZ              selected for orbital group  1
 Library entry LI     D cc-pVTZ              selected for orbital group  1
 Library entry LI     F cc-pVTZ              selected for orbital group  1


 PROGRAM * SEWARD (Integral evaluation for generally contracted gaussian basis sets)     Author: Roland Lindh, 1990

 Geometry written to block  1 of record 700

 Orientation using atomic masses  
 Molecule type: Linear
 User-specified symmetry elements: X,Y,Z
 Symmetry elements: X,Y,Z
 Rotational constants:      20.8009354     20.8009354      0.0000000 GHz  (calculated with average atomic masses)

 Point group  D2h 



 ATOMIC COORDINATES

 NR  ATOM    CHARGE       X              Y              Z

   1  LI1     3.00    0.000000000    0.000000000   -2.500000000
   2  LI2     3.00    0.000000000    0.000000000    2.500000000

 Bond lengths in Bohr (Angstrom)

 1-2  5.000000000
     ( 2.645886055)


 BASIS DATA

   Nr Sym  Nuc  Type         Exponents   Contraction coefficients

    1.1 Ag    1  1s        5988.000000     0.000133   -0.000021    0.000000    0.000000
    2.1 Ag    2  1s         898.900000     0.001025   -0.000161    0.000000    0.000000
    3.1 Ag                  205.900000     0.005272   -0.000820    0.000000    0.000000
    4.1 Ag                   59.240000     0.020929   -0.003326    0.000000    0.000000
                             19.870000     0.066340   -0.010519    0.000000    0.000000
                              7.406000     0.165775   -0.028097    0.000000    0.000000
                              2.930000     0.315038   -0.055936    0.000000    0.000000
                              1.189000     0.393523   -0.099237    0.000000    0.000000
                              0.479800     0.190870   -0.112189    0.000000    0.000000
                              0.075090     0.005414    0.567889    1.000000    0.000000
                              0.028320    -0.001328    0.530382    0.000000    1.000000
    5.1 Ag    1  2pz          3.266000     0.008630    0.000000    0.000000
    6.1 Ag    2 -2pz          0.651100     0.047538    0.000000    0.000000
    7.1 Ag                    0.169600     0.209772    0.000000    0.000000
                              0.055780     0.528522    1.000000    0.000000
                              0.020500     0.382744    0.000000    1.000000
    8.1 Ag    1  3d0          0.190000     1.000000
              2  3d0   
    9.1 Ag    1  3d2+         0.190000     1.000000
              2  3d2+  
   10.1 Ag    1  3d0          0.072500     1.000000
              2  3d0   
   11.1 Ag    1  3d2+         0.072500     1.000000
              2  3d2+  
   12.1 Ag    1  4f0          0.127000     1.000000
              2 -4f0   
   13.1 Ag    1  4f2+         0.127000     1.000000
              2 -4f2+  
    1.2 B3u   1  2px          3.266000     0.008630    0.000000    0.000000
    2.2 B3u   2  2px          0.651100     0.047538    0.000000    0.000000
    3.2 B3u                   0.169600     0.209772    0.000000    0.000000
                              0.055780     0.528522    1.000000    0.000000
                              0.020500     0.382744    0.000000    1.000000
    4.2 B3u   1  3d1+         0.190000     1.000000
              2 -3d1+  
    5.2 B3u   1  3d1+         0.072500     1.000000
              2 -3d1+  
    6.2 B3u   1  4f1+         0.127000     1.000000
              2  4f1+  
    7.2 B3u   1  4f3+         0.127000     1.000000
              2  4f3+  
    1.3 B2u   1  2py          3.266000     0.008630    0.000000    0.000000
    2.3 B2u   2  2py          0.651100     0.047538    0.000000    0.000000
    3.3 B2u                   0.169600     0.209772    0.000000    0.000000
                              0.055780     0.528522    1.000000    0.000000
                              0.020500     0.382744    0.000000    1.000000
    4.3 B2u   1  3d1-         0.190000     1.000000
              2 -3d1-  
    5.3 B2u   1  3d1-         0.072500     1.000000
              2 -3d1-  
    6.3 B2u   1  4f1-         0.127000     1.000000
              2  4f1-  
    7.3 B2u   1  4f3-         0.127000     1.000000
              2  4f3-  
    1.4 B1g   1  3d2-         0.190000     1.000000
              2  3d2-  
    2.4 B1g   1  3d2-         0.072500     1.000000
              2  3d2-  
    3.4 B1g   1  4f2-         0.127000     1.000000
              2 -4f2-  
    1.5 B1u   1  1s        5988.000000     0.000133   -0.000021    0.000000    0.000000
    2.5 B1u   2 -1s         898.900000     0.001025   -0.000161    0.000000    0.000000
    3.5 B1u                 205.900000     0.005272   -0.000820    0.000000    0.000000
    4.5 B1u                  59.240000     0.020929   -0.003326    0.000000    0.000000
                             19.870000     0.066340   -0.010519    0.000000    0.000000
                              7.406000     0.165775   -0.028097    0.000000    0.000000
                              2.930000     0.315038   -0.055936    0.000000    0.000000
                              1.189000     0.393523   -0.099237    0.000000    0.000000
                              0.479800     0.190870   -0.112189    0.000000    0.000000
                              0.075090     0.005414    0.567889    1.000000    0.000000
                              0.028320    -0.001328    0.530382    0.000000    1.000000
    5.5 B1u   1  2pz          3.266000     0.008630    0.000000    0.000000
    6.5 B1u   2  2pz          0.651100     0.047538    0.000000    0.000000
    7.5 B1u                   0.169600     0.209772    0.000000    0.000000
                              0.055780     0.528522    1.000000    0.000000
                              0.020500     0.382744    0.000000    1.000000
    8.5 B1u   1  3d0          0.190000     1.000000
              2 -3d0   
    9.5 B1u   1  3d2+         0.190000     1.000000
              2 -3d2+  
   10.5 B1u   1  3d0          0.072500     1.000000
              2 -3d0   
   11.5 B1u   1  3d2+         0.072500     1.000000
              2 -3d2+  
   12.5 B1u   1  4f0          0.127000     1.000000
              2  4f0   
   13.5 B1u   1  4f2+         0.127000     1.000000
              2  4f2+  
    1.6 B2g   1  2px          3.266000     0.008630    0.000000    0.000000
    2.6 B2g   2 -2px          0.651100     0.047538    0.000000    0.000000
    3.6 B2g                   0.169600     0.209772    0.000000    0.000000
                              0.055780     0.528522    1.000000    0.000000
                              0.020500     0.382744    0.000000    1.000000
    4.6 B2g   1  3d1+         0.190000     1.000000
              2  3d1+  
    5.6 B2g   1  3d1+         0.072500     1.000000
              2  3d1+  
    6.6 B2g   1  4f1+         0.127000     1.000000
              2 -4f1+  
    7.6 B2g   1  4f3+         0.127000     1.000000
              2 -4f3+  
    1.7 B3g   1  2py          3.266000     0.008630    0.000000    0.000000
    2.7 B3g   2 -2py          0.651100     0.047538    0.000000    0.000000
    3.7 B3g                   0.169600     0.209772    0.000000    0.000000
                              0.055780     0.528522    1.000000    0.000000
                              0.020500     0.382744    0.000000    1.000000
    4.7 B3g   1  3d1-         0.190000     1.000000
              2  3d1-  
    5.7 B3g   1  3d1-         0.072500     1.000000
              2  3d1-  
    6.7 B3g   1  4f1-         0.127000     1.000000
              2 -4f1-  
    7.7 B3g   1  4f3-         0.127000     1.000000
              2 -4f3-  
    1.8 Au    1  3d2-         0.190000     1.000000
              2 -3d2-  
    2.8 Au    1  3d2-         0.072500     1.000000
              2 -3d2-  
    3.8 Au    1  4f2-         0.127000     1.000000
              2  4f2-  

 NUCLEAR CHARGE:                    6
 NUMBER OF PRIMITIVE AOS:          96
 NUMBER OF SYMMETRY AOS:           86
 NUMBER OF CONTRACTIONS:           60   (   13Ag  +    7B3u +    7B2u +    3B1g +   13B1u +    7B2g +    7B3g +    3Au  )
 NUMBER OF CORE ORBITALS:           2   (    1Ag  +    0B3u +    0B2u +    0B1g +    1B1u +    0B2g +    0B3g +    0Au  )
 NUMBER OF VALENCE ORBITALS:        8   (    2Ag  +    1B3u +    1B2u +    0B1g +    2B1u +    1B2g +    1B3g +    0Au  )


 NUCLEAR REPULSION ENERGY    1.80000000

 EXTRA SYMMETRY OF AOS IN SYMMETRY 1:   1 1 1 1 1 1 1 1 2 1   2 1 2
 EXTRA SYMMETRY OF AOS IN SYMMETRY 2:   1 1 1 1 1 1 2
 EXTRA SYMMETRY OF AOS IN SYMMETRY 3:   1 1 1 1 1 1 2
 EXTRA SYMMETRY OF AOS IN SYMMETRY 5:   1 1 1 1 1 1 1 1 2 1   2 1 2
 EXTRA SYMMETRY OF AOS IN SYMMETRY 6:   1 1 1 1 1 1 2
 EXTRA SYMMETRY OF AOS IN SYMMETRY 7:   1 1 1 1 1 1 2

 Eigenvalues of metric

         1 0.105E-02 0.623E-02 0.554E-01 0.144E+00 0.376E+00 0.389E+00 0.852E+00 0.121E+01
         2 0.163E-01 0.202E+00 0.443E+00 0.996E+00 0.120E+01 0.217E+01 0.466E+01
         3 0.163E-01 0.202E+00 0.443E+00 0.996E+00 0.120E+01 0.217E+01 0.466E+01
         4 0.376E+00 0.121E+01 0.236E+01
         5 0.953E-03 0.131E-02 0.820E-02 0.163E-01 0.171E+00 0.188E+00 0.335E+00 0.399E+00
         6 0.798E-02 0.188E-01 0.958E-01 0.281E+00 0.796E+00 0.128E+01 0.183E+01
         7 0.798E-02 0.188E-01 0.958E-01 0.281E+00 0.796E+00 0.128E+01 0.183E+01
         8 0.171E+00 0.399E+00 0.149E+01


 Contracted 2-electron integrals neglected if value below      1.0D-11
 AO integral compression algorithm  1   Integral accuracy      1.0D-11

     1.835 MB (compressed) written to integral file ( 55.5%)


 NUMBER OF SORTED TWO-ELECTRON INTEGRALS:     230799.     BUFFER LENGTH:  32768
 NUMBER OF SEGMENTS:   1  SEGMENT LENGTH:     230799      RECORD LENGTH: 524288

 Memory used in sort:       0.79 MW

 SORT1 READ      450560. AND WROTE      192195. INTEGRALS IN      1 RECORDS. CPU TIME:     0.00 SEC, REAL TIME:     0.02 SEC
 SORT2 READ      192195. AND WROTE      230799. INTEGRALS IN      7 RECORDS. CPU TIME:     0.04 SEC, REAL TIME:     0.05 SEC

 FILE SIZES:   FILE 1:    31.9 MBYTE,  FILE 4:     4.2 MBYTE,   TOTAL:     36.1 MBYTE

 OPERATOR DM      FOR CENTER  0  COORDINATES:    0.000000    0.000000    0.000000


 **********************************************************************************************************************************
 DATASETS  * FILE   NREC   LENGTH (MB)   RECORD NAMES
              1      19       31.01       500      700      610      900      950      970     1000      129      960     1100   
                                          VAR     GEOM    BASINP   SYMINP    ZMAT    AOBASIS   BASIS     P2S    ABASIS      S 
                                         1400     1410     1200     1210     1080     1600     1650     1300     1700   
                                           T        V       H0       H01     AOSYM     SMH    MOLCAS    ERIS     OPER   

              3       5       14.79       500      610      700     1000     2100   
                                          VAR    BASINP    GEOM     BASIS     RHF  

 PROGRAMS   *        TOTAL       INT   RESTART
 CPU TIMES  *         0.39      0.27      0.02
 REAL TIME  *         0.52 SEC
 DISK USED  *        51.14 MB
 **********************************************************************************************************************************


 PROGRAM * BCCD (Closed-shell Brueckner coupled-cluster)     Authors: C. Hampel, H.-J. Werner, 1991, M. Deegan, P.J. Knowles, 1992


 Input parameters for THRESH:

 ENERGY   =    1.00D-10
 COEFF    =    1.00D-12
 PRINTCI  =    0.000000
 THRPRINT =    0.000000

 Convergence thresholds:  THRVAR = 1.00D-24  THRDEN = 1.00D-10

 Number of core orbitals:           2 (   1   0   0   0   1   0   0   0 )
 Number of closed-shell orbitals:   1 (   1   0   0   0   0   0   0   0 )
 Number of external orbitals:      57 (  11   7   7   3  12   7   7   3 )

 Molecular orbitals read from record     2100.3  Type=RHF/CANONICAL (state 1.1)

 Number of N-1 electron functions:               1
 Number of N-2 electron functions:               1
 Number of singly external CSFs:                11
 Number of doubly external CSFs:               268
 Total number of CSFs:                         280

 Brueckner orbitals will be computed and saved on record    2150.2

 Length of J-op  integral file:               0.00 MB
 Length of K-op  integral file:               0.07 MB

 Integral transformation finished. Total CPU:   0.00 sec, npass=  1  Memory used:   0.07 MW

 Reference energy:                    -14.87113611

 MP2 singles energy:                   -0.00000000
 MP2 singlet pair energy:              -0.02113221
 MP2 triplet pair energy:               0.00000000
 MP2 correlation energy:               -0.02113221
 MP2 total energy:                    -14.89226832

 SCS-MP2 correlation energy:           -0.02535865   (PS=  1.200000  PT=  0.333333)
 SCS-MP2 total energy:                -14.89649476

 ITER.      SQ.NORM     CORR.ENERGY   TOTAL ENERGY   ENERGY CHANGE        DEN1      VAR(S)    VAR(P)  DIIS     TIME  TIME/IT
   1      1.05044537    -0.02834189   -14.89947800    -0.00720968    -0.00358608  0.99D-04  0.26D-02  1  1     0.01     0.00
   2      1.09050797    -0.03050470   -14.90162117    -0.00216281    -0.00627409  0.56D-04  0.11D-02  2  2     0.02     0.00
   3      1.09886914    -0.03208290   -14.90306481    -0.00157820    -0.00094718  0.16D-05  0.83D-04  3  3     0.02     0.00
   4      1.10284118    -0.03216605   -14.90311738    -0.00008315    -0.00020146  0.64D-06  0.23D-04  4  4     0.02     0.00
   5      1.10375396    -0.03218992   -14.90314235    -0.00002387    -0.00005549  0.24D-06  0.24D-05  5  5     0.03     0.00
   6      1.10361597    -0.03218215   -14.90313989     0.00000777     0.00002042  0.86D-07  0.26D-06  6  6     0.03     0.00
   7      1.10373584    -0.03218488   -14.90314235    -0.00000272    -0.00001422  0.44D-07  0.39D-07  6  1     0.03     0.00
   8      1.10368135    -0.03218696   -14.90314126    -0.00000209     0.00000213  0.73D-08  0.71D-08  6  2     0.04     0.00
   9      1.10367244    -0.03218861   -14.90314173    -0.00000164    -0.00000067  0.11D-08  0.10D-08  6  5     0.04     0.00
  10      1.10367248    -0.03218918   -14.90314176    -0.00000058    -0.00000053  0.73D-10  0.11D-09  6  3     0.04     0.00
  11      1.10367037    -0.03218927   -14.90314174    -0.00000009     0.00000007  0.65D-11  0.24D-10  6  4     0.05     0.00
  12      1.10367043    -0.03218931   -14.90314175    -0.00000004     0.00000000  0.21D-12  0.38D-11  6  6     0.05     0.00
  13      1.10367082    -0.03218932   -14.90314175    -0.00000000    -0.00000003  0.21D-13  0.46D-12  6  1     0.06     0.00
  14      1.10367077    -0.03218931   -14.90314175     0.00000000     0.00000000  0.21D-13  0.11D-12  6  2     0.06     0.00
  15      1.10367064    -0.03218931   -14.90314175    -0.00000000     0.00000001  0.13D-13  0.25D-13  6  5     0.06     0.00
  16      1.10367061    -0.03218932   -14.90314175    -0.00000000     0.00000000  0.59D-14  0.65D-14  6  3     0.07     0.00
  17      1.10367063    -0.03218931   -14.90314175     0.00000000    -0.00000000  0.18D-14  0.16D-14  6  4     0.07     0.00
  18      1.10367064    -0.03218931   -14.90314175     0.00000000    -0.00000000  0.37D-15  0.32D-15  6  6     0.07     0.00
  19      1.10367063    -0.03218931   -14.90314175     0.00000000     0.00000000  0.89D-16  0.84D-16  6  1     0.08     0.00
  20      1.10367064    -0.03218931   -14.90314175     0.00000000     0.00000000  0.88D-17  0.14D-16  6  2     0.08     0.00
  21      1.10367063    -0.03218931   -14.90314175     0.00000000     0.00000000  0.90D-18  0.39D-17  6  5     0.08     0.00
  22      1.10367063    -0.03218931   -14.90314175     0.00000000     0.00000000  0.38D-19  0.12D-17  6  3     0.09     0.00
  23      1.10367063    -0.03218931   -14.90314175    -0.00000000    -0.00000000  0.26D-19  0.49D-18  6  4     0.09     0.00
  24      1.10367063    -0.03218931   -14.90314175     0.00000000    -0.00000000  0.21D-19  0.75D-19  6  6     0.10     0.00
  25      1.10367063    -0.03218931   -14.90314175     0.00000000    -0.00000000  0.83D-20  0.14D-19  6  1     0.10     0.00
  26      1.10367063    -0.03218931   -14.90314175    -0.00000000     0.00000000  0.43D-20  0.49D-20  6  2     0.10     0.00
  27      1.10367063    -0.03218931   -14.90314175    -0.00000000     0.00000000  0.16D-20  0.13D-20  6  5     0.11     0.00
  28      1.10367063    -0.03218931   -14.90314175    -0.00000000    -0.00000000  0.39D-21  0.27D-21  6  3     0.11     0.00
  29      1.10367063    -0.03218931   -14.90314175    -0.00000000    -0.00000000  0.80D-22  0.69D-22  6  4     0.11     0.00
  30      1.10367063    -0.03218931   -14.90314175    -0.00000000    -0.00000000  0.12D-22  0.19D-22  6  6     0.12     0.00
  31      1.10367063    -0.03218931   -14.90314175    -0.00000000    -0.00000000  0.12D-23  0.69D-23  6  1     0.12     0.00
  32      1.10367063    -0.03218931   -14.90314175    -0.00000000    -0.00000000  0.14D-24  0.23D-23  6  2     0.12     0.00
  33      1.10367063    -0.03218931   -14.90314175    -0.00000000     0.00000000  0.32D-25  0.46D-24  6  5     0.12     0.00

 Norm of t1 vector:      0.00000000      S-energy:    -0.00000000      T1 diagnostic:  0.00000000

 Orbital rotation generators (print threshold =  0.000E+00):

         I         SYM. A    A   T(IA)

         1         1         1      0.01512995
         1         1         2     -0.01580941
         1         1         3      0.00505591
         1         1         4     -0.00000000
         1         1         5      0.00141305
         1         1         6     -0.00139411
         1         1         7     -0.00000000
         1         1         8      0.00059701
         1         1         9      0.00000000
         1         1        10     -0.00047749
         1         1        11      0.00016658

 Doubles amplitudes (print threshold =  0.000E+00):

         I         J         SYM. A    SYM. B    A         B      T(IJ, AB)

         1         1         1         1         1         1     -0.03801366
         1         1         1         1         1         2      0.05028049
         1         1         1         1         1         3      0.00446813
         1         1         1         1         1         4      0.00000000
         1         1         1         1         1         5     -0.02475150
         1         1         1         1         1         6     -0.00843215
         1         1         1         1         1         7      0.00000000
         1         1         1         1         1         8     -0.00275552
         1         1         1         1         1         9     -0.00000000
         1         1         1         1         1        10     -0.00792965
         1         1         1         1         1        11     -0.00004461
         1         1         1         1         2         1      0.05028049
         1         1         1         1         2         2     -0.06957776
         1         1         1         1         2         3     -0.00282469
         1         1         1         1         2         4     -0.00000000
         1         1         1         1         2         5      0.03508510
         1         1         1         1         2         6      0.01329034
         1         1         1         1         2         7     -0.00000000
         1         1         1         1         2         8      0.00505627
         1         1         1         1         2         9      0.00000000
         1         1         1         1         2        10      0.01178608
         1         1         1         1         2        11     -0.00007885
         1         1         1         1         3         1      0.00446813
         1         1         1         1         3         2     -0.00282469
         1         1         1         1         3         3     -0.00467514
         1         1         1         1         3         4      0.00000000
         1         1         1         1         3         5      0.00122945
         1         1         1         1         3         6     -0.00164385
         1         1         1         1         3         7      0.00000000
         1         1         1         1         3         8     -0.00100648
         1         1         1         1         3         9     -0.00000000
         1         1         1         1         3        10      0.00100042
         1         1         1         1         3        11      0.00050777
         1         1         1         1         4         1      0.00000000
         1         1         1         1         4         2     -0.00000000
         1         1         1         1         4         3      0.00000000
         1         1         1         1         4         4     -0.00522529
         1         1         1         1         4         5      0.00000000
         1         1         1         1         4         6      0.00000000
         1         1         1         1         4         7     -0.00326090
         1         1         1         1         4         8     -0.00000000
         1         1         1         1         4         9     -0.00125451
         1         1         1         1         4        10     -0.00000000
         1         1         1         1         4        11      0.00000000
         1         1         1         1         5         1     -0.02475150
         1         1         1         1         5         2      0.03508510
         1         1         1         1         5         3      0.00122945
         1         1         1         1         5         4      0.00000000
         1         1         1         1         5         5     -0.01930004
         1         1         1         1         5         6     -0.00773003
         1         1         1         1         5         7      0.00000000
         1         1         1         1         5         8     -0.00341198
         1         1         1         1         5         9      0.00000000
         1         1         1         1         5        10     -0.00800549
         1         1         1         1         5        11     -0.00002967
         1         1         1         1         6         1     -0.00843215
         1         1         1         1         6         2      0.01329034
         1         1         1         1         6         3     -0.00164385
         1         1         1         1         6         4      0.00000000
         1         1         1         1         6         5     -0.00773003
         1         1         1         1         6         6     -0.00512527
         1         1         1         1         6         7      0.00000000
         1         1         1         1         6         8     -0.00249092
         1         1         1         1         6         9     -0.00000000
         1         1         1         1         6        10     -0.00415544
         1         1         1         1         6        11      0.00028492
         1         1         1         1         7         1      0.00000000
         1         1         1         1         7         2     -0.00000000
         1         1         1         1         7         3      0.00000000
         1         1         1         1         7         4     -0.00326090
         1         1         1         1         7         5      0.00000000
         1         1         1         1         7         6      0.00000000
         1         1         1         1         7         7     -0.00363603
         1         1         1         1         7         8      0.00000000
         1         1         1         1         7         9     -0.00133699
         1         1         1         1         7        10      0.00000000
         1         1         1         1         7        11     -0.00000000
         1         1         1         1         8         1     -0.00275552
         1         1         1         1         8         2      0.00505627
         1         1         1         1         8         3     -0.00100648
         1         1         1         1         8         4     -0.00000000
         1         1         1         1         8         5     -0.00341198
         1         1         1         1         8         6     -0.00249092
         1         1         1         1         8         7      0.00000000
         1         1         1         1         8         8     -0.00116730
         1         1         1         1         8         9      0.00000000
         1         1         1         1         8        10     -0.00141711
         1         1         1         1         8        11      0.00033601
         1         1         1         1         9         1     -0.00000000
         1         1         1         1         9         2      0.00000000
         1         1         1         1         9         3     -0.00000000
         1         1         1         1         9         4     -0.00125451
         1         1         1         1         9         5      0.00000000
         1         1         1         1         9         6     -0.00000000
         1         1         1         1         9         7     -0.00133699
         1         1         1         1         9         8      0.00000000
         1         1         1         1         9         9     -0.00143107
         1         1         1         1         9        10      0.00000000
         1         1         1         1         9        11      0.00000000
         1         1         1         1        10         1     -0.00792965
         1         1         1         1        10         2      0.01178608
         1         1         1         1        10         3      0.00100042
         1         1         1         1        10         4     -0.00000000
         1         1         1         1        10         5     -0.00800549
         1         1         1         1        10         6     -0.00415544
         1         1         1         1        10         7      0.00000000
         1         1         1         1        10         8     -0.00141711
         1         1         1         1        10         9      0.00000000
         1         1         1         1        10        10     -0.00494012
         1         1         1         1        10        11     -0.00011986
         1         1         1         1        11         1     -0.00004461
         1         1         1         1        11         2     -0.00007885
         1         1         1         1        11         3      0.00050777
         1         1         1         1        11         4      0.00000000
         1         1         1         1        11         5     -0.00002967
         1         1         1         1        11         6      0.00028492
         1         1         1         1        11         7     -0.00000000
         1         1         1         1        11         8      0.00033601
         1         1         1         1        11         9      0.00000000
         1         1         1         1        11        10     -0.00011986
         1         1         1         1        11        11     -0.00089153
         1         1         2         2         1         1     -0.09718313
         1         1         2         2         1         2     -0.08458673
         1         1         2         2         1         3     -0.03122629
         1         1         2         2         1         4     -0.01463268
         1         1         2         2         1         5      0.00000000
         1         1         2         2         1         6     -0.01307528
         1         1         2         2         1         7      0.00145091
         1         1         2         2         2         1     -0.08458673
         1         1         2         2         2         2     -0.07552903
         1         1         2         2         2         3     -0.02851429
         1         1         2         2         2         4     -0.01371855
         1         1         2         2         2         5      0.00000000
         1         1         2         2         2         6     -0.01364795
         1         1         2         2         2         7      0.00131834
         1         1         2         2         3         1     -0.03122629
         1         1         2         2         3         2     -0.02851429
         1         1         2         2         3         3     -0.01253637
         1         1         2         2         3         4     -0.00515142
         1         1         2         2         3         5     -0.00000000
         1         1         2         2         3         6     -0.00680714
         1         1         2         2         3         7      0.00001723
         1         1         2         2         4         1     -0.01463268
         1         1         2         2         4         2     -0.01371855
         1         1         2         2         4         3     -0.00515142
         1         1         2         2         4         4     -0.00377601
         1         1         2         2         4         5      0.00000000
         1         1         2         2         4         6     -0.00440676
         1         1         2         2         4         7      0.00055719
         1         1         2         2         5         1      0.00000000
         1         1         2         2         5         2      0.00000000
         1         1         2         2         5         3     -0.00000000
         1         1         2         2         5         4      0.00000000
         1         1         2         2         5         5     -0.00193095
         1         1         2         2         5         6     -0.00000000
         1         1         2         2         5         7     -0.00000000
         1         1         2         2         6         1     -0.01307528
         1         1         2         2         6         2     -0.01364795
         1         1         2         2         6         3     -0.00680714
         1         1         2         2         6         4     -0.00440676
         1         1         2         2         6         5     -0.00000000
         1         1         2         2         6         6     -0.00639205
         1         1         2         2         6         7      0.00011005
         1         1         2         2         7         1      0.00145091
         1         1         2         2         7         2      0.00131834
         1         1         2         2         7         3      0.00001723
         1         1         2         2         7         4      0.00055719
         1         1         2         2         7         5     -0.00000000
         1         1         2         2         7         6      0.00011005
         1         1         2         2         7         7     -0.00056827
         1         1         3         3         1         1     -0.09718313
         1         1         3         3         1         2     -0.08458673
         1         1         3         3         1         3     -0.03122629
         1         1         3         3         1         4     -0.01463268
         1         1         3         3         1         5     -0.00000000
         1         1         3         3         1         6     -0.01307528
         1         1         3         3         1         7      0.00145091
         1         1         3         3         2         1     -0.08458673
         1         1         3         3         2         2     -0.07552903
         1         1         3         3         2         3     -0.02851429
         1         1         3         3         2         4     -0.01371855
         1         1         3         3         2         5     -0.00000000
         1         1         3         3         2         6     -0.01364795
         1         1         3         3         2         7      0.00131834
         1         1         3         3         3         1     -0.03122629
         1         1         3         3         3         2     -0.02851429
         1         1         3         3         3         3     -0.01253637
         1         1         3         3         3         4     -0.00515142
         1         1         3         3         3         5      0.00000000
         1         1         3         3         3         6     -0.00680714
         1         1         3         3         3         7      0.00001723
         1         1         3         3         4         1     -0.01463268
         1         1         3         3         4         2     -0.01371855
         1         1         3         3         4         3     -0.00515142
         1         1         3         3         4         4     -0.00377601
         1         1         3         3         4         5     -0.00000000
         1         1         3         3         4         6     -0.00440676
         1         1         3         3         4         7      0.00055719
         1         1         3         3         5         1     -0.00000000
         1         1         3         3         5         2     -0.00000000
         1         1         3         3         5         3      0.00000000
         1         1         3         3         5         4     -0.00000000
         1         1         3         3         5         5     -0.00193095
         1         1         3         3         5         6      0.00000000
         1         1         3         3         5         7      0.00000000
         1         1         3         3         6         1     -0.01307528
         1         1         3         3         6         2     -0.01364795
         1         1         3         3         6         3     -0.00680714
         1         1         3         3         6         4     -0.00440676
         1         1         3         3         6         5      0.00000000
         1         1         3         3         6         6     -0.00639205
         1         1         3         3         6         7      0.00011005
         1         1         3         3         7         1      0.00145091
         1         1         3         3         7         2      0.00131834
         1         1         3         3         7         3      0.00001723
         1         1         3         3         7         4      0.00055719
         1         1         3         3         7         5      0.00000000
         1         1         3         3         7         6      0.00011005
         1         1         3         3         7         7     -0.00056827
         1         1         4         4         1         1     -0.00522529
         1         1         4         4         1         2     -0.00326090
         1         1         4         4         1         3     -0.00125451
         1         1         4         4         2         1     -0.00326090
         1         1         4         4         2         2     -0.00363603
         1         1         4         4         2         3     -0.00133699
         1         1         4         4         3         1     -0.00125451
         1         1         4         4         3         2     -0.00133699
         1         1         4         4         3         3     -0.00143107
         1         1         5         5         1         1     -0.06786534
         1         1         5         5         1         2      0.04812457
         1         1         5         5         1         3     -0.01516414
         1         1         5         5         1         4     -0.03285133
         1         1         5         5         1         5     -0.00000000
         1         1         5         5         1         6      0.00603169
         1         1         5         5         1         7     -0.01648148
         1         1         5         5         1         8     -0.00000000
         1         1         5         5         1         9      0.00204099
         1         1         5         5         1        10      0.00000000
         1         1         5         5         1        11      0.00250916
         1         1         5         5         1        12     -0.00052655
         1         1         5         5         2         1      0.04812457
         1         1         5         5         2         2     -0.03458349
         1         1         5         5         2         3      0.01099162
         1         1         5         5         2         4      0.02456413
         1         1         5         5         2         5      0.00000000
         1         1         5         5         2         6     -0.00459321
         1         1         5         5         2         7      0.01311425
         1         1         5         5         2         8      0.00000000
         1         1         5         5         2         9     -0.00161996
         1         1         5         5         2        10     -0.00000000
         1         1         5         5         2        11     -0.00224309
         1         1         5         5         2        12      0.00045848
         1         1         5         5         3         1     -0.01516414
         1         1         5         5         3         2      0.01099162
         1         1         5         5         3         3     -0.00368622
         1         1         5         5         3         4     -0.00796054
         1         1         5         5         3         5      0.00000000
         1         1         5         5         3         6      0.00168819
         1         1         5         5         3         7     -0.00476551
         1         1         5         5         3         8      0.00000000
         1         1         5         5         3         9      0.00089202
         1         1         5         5         3        10     -0.00000000
         1         1         5         5         3        11      0.00099579
         1         1         5         5         3        12     -0.00020237
         1         1         5         5         4         1     -0.03285133
         1         1         5         5         4         2      0.02456413
         1         1         5         5         4         3     -0.00796054
         1         1         5         5         4         4     -0.01985553
         1         1         5         5         4         5     -0.00000000
         1         1         5         5         4         6      0.00387834
         1         1         5         5         4         7     -0.01238324
         1         1         5         5         4         8     -0.00000000
         1         1         5         5         4         9      0.00106020
         1         1         5         5         4        10      0.00000000
         1         1         5         5         4        11      0.00260289
         1         1         5         5         4        12     -0.00053125
         1         1         5         5         5         1     -0.00000000
         1         1         5         5         5         2      0.00000000
         1         1         5         5         5         3      0.00000000
         1         1         5         5         5         4     -0.00000000
         1         1         5         5         5         5     -0.00138839
         1         1         5         5         5         6     -0.00000000
         1         1         5         5         5         7      0.00000000
         1         1         5         5         5         8     -0.00010178
         1         1         5         5         5         9     -0.00000000
         1         1         5         5         5        10     -0.00096536
         1         1         5         5         5        11     -0.00000000
         1         1         5         5         5        12      0.00000000
         1         1         5         5         6         1      0.00603169
         1         1         5         5         6         2     -0.00459321
         1         1         5         5         6         3      0.00168819
         1         1         5         5         6         4      0.00387834
         1         1         5         5         6         5     -0.00000000
         1         1         5         5         6         6     -0.00131139
         1         1         5         5         6         7      0.00340533
         1         1         5         5         6         8      0.00000000
         1         1         5         5         6         9     -0.00096535
         1         1         5         5         6        10     -0.00000000
         1         1         5         5         6        11     -0.00128832
         1         1         5         5         6        12      0.00037309
         1         1         5         5         7         1     -0.01648148
         1         1         5         5         7         2      0.01311425
         1         1         5         5         7         3     -0.00476551
         1         1         5         5         7         4     -0.01238324
         1         1         5         5         7         5      0.00000000
         1         1         5         5         7         6      0.00340533
         1         1         5         5         7         7     -0.00968485
         1         1         5         5         7         8      0.00000000
         1         1         5         5         7         9      0.00071650
         1         1         5         5         7        10      0.00000000
         1         1         5         5         7        11      0.00286544
         1         1         5         5         7        12     -0.00068913
         1         1         5         5         8         1     -0.00000000
         1         1         5         5         8         2      0.00000000
         1         1         5         5         8         3      0.00000000
         1         1         5         5         8         4     -0.00000000
         1         1         5         5         8         5     -0.00010178
         1         1         5         5         8         6      0.00000000
         1         1         5         5         8         7      0.00000000
         1         1         5         5         8         8     -0.00033658
         1         1         5         5         8         9     -0.00000000
         1         1         5         5         8        10     -0.00013852
         1         1         5         5         8        11     -0.00000000
         1         1         5         5         8        12      0.00000000
         1         1         5         5         9         1      0.00204099
         1         1         5         5         9         2     -0.00161996
         1         1         5         5         9         3      0.00089202
         1         1         5         5         9         4      0.00106020
         1         1         5         5         9         5     -0.00000000
         1         1         5         5         9         6     -0.00096535
         1         1         5         5         9         7      0.00071650
         1         1         5         5         9         8     -0.00000000
         1         1         5         5         9         9     -0.00058950
         1         1         5         5         9        10      0.00000000
         1         1         5         5         9        11     -0.00041421
         1         1         5         5         9        12      0.00025031
         1         1         5         5        10         1      0.00000000
         1         1         5         5        10         2     -0.00000000
         1         1         5         5        10         3     -0.00000000
         1         1         5         5        10         4      0.00000000
         1         1         5         5        10         5     -0.00096536
         1         1         5         5        10         6     -0.00000000
         1         1         5         5        10         7      0.00000000
         1         1         5         5        10         8     -0.00013852
         1         1         5         5        10         9      0.00000000
         1         1         5         5        10        10     -0.00163669
         1         1         5         5        10        11      0.00000000
         1         1         5         5        10        12     -0.00000000
         1         1         5         5        11         1      0.00250916
         1         1         5         5        11         2     -0.00224309
         1         1         5         5        11         3      0.00099579
         1         1         5         5        11         4      0.00260289
         1         1         5         5        11         5     -0.00000000
         1         1         5         5        11         6     -0.00128832
         1         1         5         5        11         7      0.00286544
         1         1         5         5        11         8     -0.00000000
         1         1         5         5        11         9     -0.00041421
         1         1         5         5        11        10      0.00000000
         1         1         5         5        11        11     -0.00191162
         1         1         5         5        11        12      0.00054229
         1         1         5         5        12         1     -0.00052655
         1         1         5         5        12         2      0.00045848
         1         1         5         5        12         3     -0.00020237
         1         1         5         5        12         4     -0.00053125
         1         1         5         5        12         5      0.00000000
         1         1         5         5        12         6      0.00037309
         1         1         5         5        12         7     -0.00068913
         1         1         5         5        12         8      0.00000000
         1         1         5         5        12         9      0.00025031
         1         1         5         5        12        10     -0.00000000
         1         1         5         5        12        11      0.00054229
         1         1         5         5        12        12     -0.00063289
         1         1         6         6         1         1     -0.00093972
         1         1         6         6         1         2     -0.00207253
         1         1         6         6         1         3     -0.00075500
         1         1         6         6         1         4     -0.00033611
         1         1         6         6         1         5     -0.00000000
         1         1         6         6         1         6      0.00060046
         1         1         6         6         1         7     -0.00027816
         1         1         6         6         2         1     -0.00207253
         1         1         6         6         2         2     -0.00496148
         1         1         6         6         2         3     -0.00179634
         1         1         6         6         2         4     -0.00129863
         1         1         6         6         2         5      0.00000000
         1         1         6         6         2         6      0.00151347
         1         1         6         6         2         7     -0.00103450
         1         1         6         6         3         1     -0.00075500
         1         1         6         6         3         2     -0.00179634
         1         1         6         6         3         3     -0.00099043
         1         1         6         6         3         4     -0.00057793
         1         1         6         6         3         5      0.00000000
         1         1         6         6         3         6      0.00064301
         1         1         6         6         3         7     -0.00061001
         1         1         6         6         4         1     -0.00033611
         1         1         6         6         4         2     -0.00129863
         1         1         6         6         4         3     -0.00057793
         1         1         6         6         4         4     -0.00048867
         1         1         6         6         4         5     -0.00000000
         1         1         6         6         4         6      0.00082848
         1         1         6         6         4         7     -0.00084218
         1         1         6         6         5         1     -0.00000000
         1         1         6         6         5         2      0.00000000
         1         1         6         6         5         3      0.00000000
         1         1         6         6         5         4     -0.00000000
         1         1         6         6         5         5     -0.00091457
         1         1         6         6         5         6      0.00000000
         1         1         6         6         5         7      0.00000000
         1         1         6         6         6         1      0.00060046
         1         1         6         6         6         2      0.00151347
         1         1         6         6         6         3      0.00064301
         1         1         6         6         6         4      0.00082848
         1         1         6         6         6         5      0.00000000
         1         1         6         6         6         6     -0.00041906
         1         1         6         6         6         7      0.00046426
         1         1         6         6         7         1     -0.00027816
         1         1         6         6         7         2     -0.00103450
         1         1         6         6         7         3     -0.00061001
         1         1         6         6         7         4     -0.00084218
         1         1         6         6         7         5      0.00000000
         1         1         6         6         7         6      0.00046426
         1         1         6         6         7         7     -0.00143355
         1         1         7         7         1         1     -0.00093972
         1         1         7         7         1         2     -0.00207253
         1         1         7         7         1         3     -0.00075500
         1         1         7         7         1         4     -0.00033611
         1         1         7         7         1         5      0.00000000
         1         1         7         7         1         6      0.00060046
         1         1         7         7         1         7     -0.00027816
         1         1         7         7         2         1     -0.00207253
         1         1         7         7         2         2     -0.00496148
         1         1         7         7         2         3     -0.00179634
         1         1         7         7         2         4     -0.00129863
         1         1         7         7         2         5     -0.00000000
         1         1         7         7         2         6      0.00151347
         1         1         7         7         2         7     -0.00103450
         1         1         7         7         3         1     -0.00075500
         1         1         7         7         3         2     -0.00179634
         1         1         7         7         3         3     -0.00099043
         1         1         7         7         3         4     -0.00057793
         1         1         7         7         3         5     -0.00000000
         1         1         7         7         3         6      0.00064301
         1         1         7         7         3         7     -0.00061001
         1         1         7         7         4         1     -0.00033611
         1         1         7         7         4         2     -0.00129863
         1         1         7         7         4         3     -0.00057793
         1         1         7         7         4         4     -0.00048867
         1         1         7         7         4         5      0.00000000
         1         1         7         7         4         6      0.00082848
         1         1         7         7         4         7     -0.00084218
         1         1         7         7         5         1      0.00000000
         1         1         7         7         5         2     -0.00000000
         1         1         7         7         5         3     -0.00000000
         1         1         7         7         5         4      0.00000000
         1         1         7         7         5         5     -0.00091457
         1         1         7         7         5         6     -0.00000000
         1         1         7         7         5         7     -0.00000000
         1         1         7         7         6         1      0.00060046
         1         1         7         7         6         2      0.00151347
         1         1         7         7         6         3      0.00064301
         1         1         7         7         6         4      0.00082848
         1         1         7         7         6         5     -0.00000000
         1         1         7         7         6         6     -0.00041906
         1         1         7         7         6         7      0.00046426
         1         1         7         7         7         1     -0.00027816
         1         1         7         7         7         2     -0.00103450
         1         1         7         7         7         3     -0.00061001
         1         1         7         7         7         4     -0.00084218
         1         1         7         7         7         5     -0.00000000
         1         1         7         7         7         6      0.00046426
         1         1         7         7         7         7     -0.00143355
         1         1         8         8         1         1     -0.00138839
         1         1         8         8         1         2     -0.00010178
         1         1         8         8         1         3     -0.00096536
         1         1         8         8         2         1     -0.00010178
         1         1         8         8         2         2     -0.00033658
         1         1         8         8         2         3     -0.00013852
         1         1         8         8         3         1     -0.00096536
         1         1         8         8         3         2     -0.00013852
         1         1         8         8         3         3     -0.00163669


 RESULTS
 =======

  Reference energy                    -14.870952437708
  BCCD singlet pair energy             -0.032189313922
  BCCD triplet pair energy              0.000000000000
  BCCD correlation energy              -0.032189313922

 !BCCD total energy                   -14.903141751630

 Approximate expectation values using Brueckner orbitals

 !BCCD(ref) STATE  1.1 Dipole momen     0.00000000     0.00000000     0.00000000
 Dipole moment /Debye                   0.00000000     0.00000000     0.00000000

 Brueckner orbitals saved on record           2150.2 (orbital set 1)
 Brueckner density (ref) saved on record      2150.2 (density set 1)

 Brueckner orbitals
 ==================

   Orb     Occ           Coefficients

                         1 1s      1 1s      1 1s      1 1s      1 2pz     1 2pz     1 2pz     1 3d0     1 3d2+    1 3d0  
                         1 3d2+    1 4f0     1 4f2+ 

   2.1    2.0000000   -0.009289  1.002489 -0.125898 -0.159058  0.378840 -0.113229 -0.128711  0.007378  0.000000  0.000666
                      -0.000000 -0.001222 -0.000000

 Timing summary (sec):

 STEP                 CPU(USER)    SYS     CPU(TOT)    WALL
 Transformation          0.05      0.02      0.07      0.08
 CCSD iterations         0.09      0.02      0.11      0.10

 Program statistics:

 Available memory in ccsd:                39999196
 Min. memory needed in ccsd:                  8026
 Max. memory used in ccsd:                    8026
 Max. memory used in cckext:                 38989 (33 integral passes)



 **********************************************************************************************************************************
 DATASETS  * FILE   NREC   LENGTH (MB)   RECORD NAMES
              1      20       31.03       500      700      610      900      950      970     1000      129      960     1100   
                                          VAR     GEOM    BASINP   SYMINP    ZMAT    AOBASIS   BASIS     P2S    ABASIS      S 
                                         1400     1410     1200     1210     1080     1600     1650     1300     1700     1380   
                                           T        V       H0       H01     AOSYM     SMH    MOLCAS    ERIS     OPER     JKOP   

              2       4        2.76       700     1000      520     2150   
                                         GEOM     BASIS   MCVARS    BCCD   

              3       5       14.79       500      610      700     1000     2100   
                                          VAR    BASINP    GEOM     BASIS     RHF  

 PROGRAMS   *        TOTAL      BCCD       INT   RESTART
 CPU TIMES  *         0.60      0.21      0.27      0.02
 REAL TIME  *         0.76 SEC
 DISK USED  *        51.14 MB
 **********************************************************************************************************************************

 Dump information in style XML to orbitals.xml                                                                    

 Variables will not be exported.
 Molecular orbitals read from record     2150.2  Type=BCCD/BRUECKNER (state 1.1)
 Occupation numbers read from record     2150.2  Type=BCCD/BRUECKNER (state 1.1)

 No orbital energies found for orbital set 0

 No redundancy group numbers found for orbital set 0

 **********************************************************************************************************************************

 BCCD/cc-pVTZ energy=    -14.903141751630

            BCCD
    -14.90314175
 **********************************************************************************************************************************
 Molpro calculation terminated
