
 Primary working directories    : /scr/yuriaoto/job.023686/molpro.sgorI7JuPQ
 Secondary working directories  : /scr/yuriaoto/job.023686/molpro.sgorI7JuPQ
 Wavefunction directory         : /scr/yuriaoto/job.023686/
 Main file repository           : /scr/yuriaoto/job.023686/molpro.sgorI7JuPQ/

 id        : yuriaoto

 Nodes             nprocs
 t-rex.ufabc.int.br    1

 Using customized tuning parameters: mindgm=8; mindgv=16; mindgc=1; mindgr=1; noblas=0; minvec=7
 default implementation of scratch files=df  


 Variables initialized (933), CPU time= 0.01 sec
 ***,
 memory,40,m
 gprint,orbital,basis,civector
 gthresh,thrprint=0,printci=0.0
 file,3,wfu.dat,old
 
 {ccsd,CC_NORM_MAX=10.0
 nosingle
 thresh,printci=0.0,ENERGY=1.0E-10,COEFF=1.0E-12
 print,ref=1
 wf,6,1,0;
 }
 
 Commands  initialized (760), CPU time= 0.01 sec, 617 directives.
 Default parameters read. Elapsed time= 0.04 sec

 Checking input...
 Passed
1


                                         ***  PROGRAM SYSTEM MOLPRO  ***
                                       Copyright, TTI GmbH Stuttgart, 2015
                                    Version 2019.2 linked Abr  7 2019 15:10:35


 **********************************************************************************************************************************
 LABEL *                                                                                 
  64 bit serial version                                                                  DATE: 05-Jun-20          TIME: 23:32:25  
 **********************************************************************************************************************************

 SHA1:             3a8a58c585c929645742fb5a1b7541a4ad1da699
 **********************************************************************************************************************************


 THRESHOLDS:

 ZERO    =  1.00D-12  ONEINT  =  1.00D-12  TWOINT  =  1.00D-11  PREFAC  =  1.00D-14  XXXXXX  =  1.00D-09  EORDER  =  1.00D-04
 ENERGY  =  0.00D+00  ETEST   =  0.00D+00  EDENS   =  0.00D+00  THRDEDEF=  1.00D-06  GRADIENT=  1.00D-02  STEP    =  1.00D-03
 ORBITAL =  1.00D-05  CIVEC   =  1.00D-05  COEFF   =  1.00D-04  PRINTCI =  0.00D+00  PUNCHCI =  9.90D+01  OPTGRAD =  3.00D-04
 OPTENERG=  1.00D-06  OPTSTEP =  3.00D-04  THRGRAD =  1.00D-10  COMPRESS=  1.00D-11  VARMIN  =  1.00D-07  VARMAX  =  1.00D-03
 THRDOUB =  0.00D+00  THRDIV  =  1.00D-05  THRRED  =  1.00D-07  THRPSP  =  1.00D+00  THRDC   =  1.00D-10  THRCS   =  1.00D-10
 THRNRM  =  1.00D-08  THREQ   =  0.00D+00  THRDE   =  1.00D+00  THRREF  =  1.00D-05  SPARFAC =  1.00D+00  THRDLP  =  1.00D-07
 THRDIA  =  1.00D-10  THRDLS  =  1.00D-07  THRGPS  =  0.00D+00  THRKEX  =  0.00D+00  THRDIS  =  2.00D-01  THRVAR  =  1.00D-10
 THRLOC  =  1.00D-06  THRGAP  =  1.00D-06  THRLOCT = -1.00D+00  THRGAPT = -1.00D+00  THRORB  =  1.00D-06  THRMLTP =  0.00D+00
 THRCPQCI=  1.00D-10  KEXTA   =  0.00D+00  THRCOARS=  0.00D+00  SYMTOL  =  1.00D-06  GRADTOL =  1.00D-06  THROVL  =  1.00D-08
 THRORTH =  1.00D-08  GRID    =  1.00D-06  GRIDMAX =  1.00D-03  DTMAX   =  0.00D+00  THROCCDE=  1.00D-01  THROCCDE=  1.00D-01
 THRPRINT=  0.00D+00


 Variable memory set to   40000000 words,  buffer space 



 Permanent file  3  wfu.dat  assigned.  Implementation=df    Size= 14.10 MB


 PROGRAM * RESTART 


 Reading variables from file 3

 _FNUC           =      0.00000000
 _BASIS          =    CC-PVTZ
 _NELEC          =      6.00000000
 _PROGRAM        =    RHF-SCF
 _DMX_SCF        =      0.00000000
 _DMY_SCF        =      0.00000000
 _DMZ_SCF        =      0.00000000
 _HOMO           =      2.10000000
 _EHOMO          =     -0.18224319
 _LUMO           =      2.50000000
 _ELUMO          =      0.00671464
 _ENERGY         =    -14.87113611
 _ENERGY_METHOD  =    RHF
 _ENERGY_BASIS   =    cc-pVTZ
 _ENUC           =      1.80000000
 _EPS1(1:13)     =     -2.45288987    -0.18224319     0.03854712     0.10701166     0.14531626     0.20132214
                        0.29578721     0.48884990     0.54279194     0.67005534     0.71011391     0.76079758
                        3.02244577
 _EPS2(1:7)      =      0.02716422     0.11604575     0.23979625     0.45701108     0.51087424     0.65663878
                        0.75753063
 _EPS3(1:7)      =      0.02716422     0.11604575     0.23979625     0.45701108     0.51087424     0.65663878
                        0.75753063
 _EPS4(1:3)      =      0.20132214     0.54279194     0.71011391
 _EPS5(1:13)     =     -2.45251703     0.00671464     0.06418201     0.15568446     0.23456666     0.26036282
                        0.39933341     0.51839623     0.69667587     0.74973264     0.77175124     1.01349064
                        3.16580891
 _EPS6(1:7)      =      0.05594314     0.16306709     0.32645184     0.46064971     0.59133328     0.71550490
                        0.96090549
 _EPS7(1:7)      =      0.05594314     0.16306709     0.32645184     0.46064971     0.59133328     0.71550490
                        0.96090549
 _EPS8(1:3)      =      0.26036282     0.69667587     0.77175124
 _IPROC_MPP      =      0.00000000
 _IPROC_MPPX     =      0.00000000
 _ORBITAL        =   2100.30000000
 _STATUS         =      1.00000000
 _DATE           =    10-Feb-20
 _LASTORB        =    RHF
 _OUTPUT         =    /scr/yuriaoto/job.022757/RHF.xml
 _PGROUP         =    D2h 
 _TIME           =    10:55:45
 R               =      5.00000000

 Geometry written to block  1 of record 700


 **********************************************************************************************************************************
 DATASETS  * FILE   NREC   LENGTH (MB)   RECORD NAMES
              3       5       14.79       500      610      700     1000     2100   
                                          VAR    BASINP    GEOM     BASIS     RHF  

 PROGRAMS   *        TOTAL   RESTART
 CPU TIMES  *         0.11      0.01
 REAL TIME  *         0.15 SEC
 DISK USED  *        26.86 MB
 **********************************************************************************************************************************


 Recomputing integrals since basis changed


 Using spherical harmonics

 Library entry LI     S cc-pVTZ              selected for orbital group  1
 Library entry LI     P cc-pVTZ              selected for orbital group  1
 Library entry LI     D cc-pVTZ              selected for orbital group  1
 Library entry LI     F cc-pVTZ              selected for orbital group  1


 PROGRAM * SEWARD (Integral evaluation for generally contracted gaussian basis sets)     Author: Roland Lindh, 1990

 Geometry written to block  1 of record 700

 Orientation using atomic masses  
 Molecule type: Linear
 User-specified symmetry elements: X,Y,Z
 Symmetry elements: X,Y,Z
 Rotational constants:      20.8009354     20.8009354      0.0000000 GHz  (calculated with average atomic masses)

 Point group  D2h 



 ATOMIC COORDINATES

 NR  ATOM    CHARGE       X              Y              Z

   1  LI1     3.00    0.000000000    0.000000000   -2.500000000
   2  LI2     3.00    0.000000000    0.000000000    2.500000000

 Bond lengths in Bohr (Angstrom)

 1-2  5.000000000
     ( 2.645886055)


 BASIS DATA

   Nr Sym  Nuc  Type         Exponents   Contraction coefficients

    1.1 Ag    1  1s        5988.000000     0.000133   -0.000021    0.000000    0.000000
    2.1 Ag    2  1s         898.900000     0.001025   -0.000161    0.000000    0.000000
    3.1 Ag                  205.900000     0.005272   -0.000820    0.000000    0.000000
    4.1 Ag                   59.240000     0.020929   -0.003326    0.000000    0.000000
                             19.870000     0.066340   -0.010519    0.000000    0.000000
                              7.406000     0.165775   -0.028097    0.000000    0.000000
                              2.930000     0.315038   -0.055936    0.000000    0.000000
                              1.189000     0.393523   -0.099237    0.000000    0.000000
                              0.479800     0.190870   -0.112189    0.000000    0.000000
                              0.075090     0.005414    0.567889    1.000000    0.000000
                              0.028320    -0.001328    0.530382    0.000000    1.000000
    5.1 Ag    1  2pz          3.266000     0.008630    0.000000    0.000000
    6.1 Ag    2 -2pz          0.651100     0.047538    0.000000    0.000000
    7.1 Ag                    0.169600     0.209772    0.000000    0.000000
                              0.055780     0.528522    1.000000    0.000000
                              0.020500     0.382744    0.000000    1.000000
    8.1 Ag    1  3d0          0.190000     1.000000
              2  3d0   
    9.1 Ag    1  3d2+         0.190000     1.000000
              2  3d2+  
   10.1 Ag    1  3d0          0.072500     1.000000
              2  3d0   
   11.1 Ag    1  3d2+         0.072500     1.000000
              2  3d2+  
   12.1 Ag    1  4f0          0.127000     1.000000
              2 -4f0   
   13.1 Ag    1  4f2+         0.127000     1.000000
              2 -4f2+  
    1.2 B3u   1  2px          3.266000     0.008630    0.000000    0.000000
    2.2 B3u   2  2px          0.651100     0.047538    0.000000    0.000000
    3.2 B3u                   0.169600     0.209772    0.000000    0.000000
                              0.055780     0.528522    1.000000    0.000000
                              0.020500     0.382744    0.000000    1.000000
    4.2 B3u   1  3d1+         0.190000     1.000000
              2 -3d1+  
    5.2 B3u   1  3d1+         0.072500     1.000000
              2 -3d1+  
    6.2 B3u   1  4f1+         0.127000     1.000000
              2  4f1+  
    7.2 B3u   1  4f3+         0.127000     1.000000
              2  4f3+  
    1.3 B2u   1  2py          3.266000     0.008630    0.000000    0.000000
    2.3 B2u   2  2py          0.651100     0.047538    0.000000    0.000000
    3.3 B2u                   0.169600     0.209772    0.000000    0.000000
                              0.055780     0.528522    1.000000    0.000000
                              0.020500     0.382744    0.000000    1.000000
    4.3 B2u   1  3d1-         0.190000     1.000000
              2 -3d1-  
    5.3 B2u   1  3d1-         0.072500     1.000000
              2 -3d1-  
    6.3 B2u   1  4f1-         0.127000     1.000000
              2  4f1-  
    7.3 B2u   1  4f3-         0.127000     1.000000
              2  4f3-  
    1.4 B1g   1  3d2-         0.190000     1.000000
              2  3d2-  
    2.4 B1g   1  3d2-         0.072500     1.000000
              2  3d2-  
    3.4 B1g   1  4f2-         0.127000     1.000000
              2 -4f2-  
    1.5 B1u   1  1s        5988.000000     0.000133   -0.000021    0.000000    0.000000
    2.5 B1u   2 -1s         898.900000     0.001025   -0.000161    0.000000    0.000000
    3.5 B1u                 205.900000     0.005272   -0.000820    0.000000    0.000000
    4.5 B1u                  59.240000     0.020929   -0.003326    0.000000    0.000000
                             19.870000     0.066340   -0.010519    0.000000    0.000000
                              7.406000     0.165775   -0.028097    0.000000    0.000000
                              2.930000     0.315038   -0.055936    0.000000    0.000000
                              1.189000     0.393523   -0.099237    0.000000    0.000000
                              0.479800     0.190870   -0.112189    0.000000    0.000000
                              0.075090     0.005414    0.567889    1.000000    0.000000
                              0.028320    -0.001328    0.530382    0.000000    1.000000
    5.5 B1u   1  2pz          3.266000     0.008630    0.000000    0.000000
    6.5 B1u   2  2pz          0.651100     0.047538    0.000000    0.000000
    7.5 B1u                   0.169600     0.209772    0.000000    0.000000
                              0.055780     0.528522    1.000000    0.000000
                              0.020500     0.382744    0.000000    1.000000
    8.5 B1u   1  3d0          0.190000     1.000000
              2 -3d0   
    9.5 B1u   1  3d2+         0.190000     1.000000
              2 -3d2+  
   10.5 B1u   1  3d0          0.072500     1.000000
              2 -3d0   
   11.5 B1u   1  3d2+         0.072500     1.000000
              2 -3d2+  
   12.5 B1u   1  4f0          0.127000     1.000000
              2  4f0   
   13.5 B1u   1  4f2+         0.127000     1.000000
              2  4f2+  
    1.6 B2g   1  2px          3.266000     0.008630    0.000000    0.000000
    2.6 B2g   2 -2px          0.651100     0.047538    0.000000    0.000000
    3.6 B2g                   0.169600     0.209772    0.000000    0.000000
                              0.055780     0.528522    1.000000    0.000000
                              0.020500     0.382744    0.000000    1.000000
    4.6 B2g   1  3d1+         0.190000     1.000000
              2  3d1+  
    5.6 B2g   1  3d1+         0.072500     1.000000
              2  3d1+  
    6.6 B2g   1  4f1+         0.127000     1.000000
              2 -4f1+  
    7.6 B2g   1  4f3+         0.127000     1.000000
              2 -4f3+  
    1.7 B3g   1  2py          3.266000     0.008630    0.000000    0.000000
    2.7 B3g   2 -2py          0.651100     0.047538    0.000000    0.000000
    3.7 B3g                   0.169600     0.209772    0.000000    0.000000
                              0.055780     0.528522    1.000000    0.000000
                              0.020500     0.382744    0.000000    1.000000
    4.7 B3g   1  3d1-         0.190000     1.000000
              2  3d1-  
    5.7 B3g   1  3d1-         0.072500     1.000000
              2  3d1-  
    6.7 B3g   1  4f1-         0.127000     1.000000
              2 -4f1-  
    7.7 B3g   1  4f3-         0.127000     1.000000
              2 -4f3-  
    1.8 Au    1  3d2-         0.190000     1.000000
              2 -3d2-  
    2.8 Au    1  3d2-         0.072500     1.000000
              2 -3d2-  
    3.8 Au    1  4f2-         0.127000     1.000000
              2  4f2-  

 NUCLEAR CHARGE:                    6
 NUMBER OF PRIMITIVE AOS:          96
 NUMBER OF SYMMETRY AOS:           86
 NUMBER OF CONTRACTIONS:           60   (   13Ag  +    7B3u +    7B2u +    3B1g +   13B1u +    7B2g +    7B3g +    3Au  )
 NUMBER OF CORE ORBITALS:           2   (    1Ag  +    0B3u +    0B2u +    0B1g +    1B1u +    0B2g +    0B3g +    0Au  )
 NUMBER OF VALENCE ORBITALS:        8   (    2Ag  +    1B3u +    1B2u +    0B1g +    2B1u +    1B2g +    1B3g +    0Au  )


 NUCLEAR REPULSION ENERGY    1.80000000

 EXTRA SYMMETRY OF AOS IN SYMMETRY 1:   1 1 1 1 1 1 1 1 2 1   2 1 2
 EXTRA SYMMETRY OF AOS IN SYMMETRY 2:   1 1 1 1 1 1 2
 EXTRA SYMMETRY OF AOS IN SYMMETRY 3:   1 1 1 1 1 1 2
 EXTRA SYMMETRY OF AOS IN SYMMETRY 5:   1 1 1 1 1 1 1 1 2 1   2 1 2
 EXTRA SYMMETRY OF AOS IN SYMMETRY 6:   1 1 1 1 1 1 2
 EXTRA SYMMETRY OF AOS IN SYMMETRY 7:   1 1 1 1 1 1 2

 Eigenvalues of metric

         1 0.105E-02 0.623E-02 0.554E-01 0.144E+00 0.376E+00 0.389E+00 0.852E+00 0.121E+01
         2 0.163E-01 0.202E+00 0.443E+00 0.996E+00 0.120E+01 0.217E+01 0.466E+01
         3 0.163E-01 0.202E+00 0.443E+00 0.996E+00 0.120E+01 0.217E+01 0.466E+01
         4 0.376E+00 0.121E+01 0.236E+01
         5 0.953E-03 0.131E-02 0.820E-02 0.163E-01 0.171E+00 0.188E+00 0.335E+00 0.399E+00
         6 0.798E-02 0.188E-01 0.958E-01 0.281E+00 0.796E+00 0.128E+01 0.183E+01
         7 0.798E-02 0.188E-01 0.958E-01 0.281E+00 0.796E+00 0.128E+01 0.183E+01
         8 0.171E+00 0.399E+00 0.149E+01


 Contracted 2-electron integrals neglected if value below      1.0D-11
 AO integral compression algorithm  1   Integral accuracy      1.0D-11

     1.835 MB (compressed) written to integral file ( 55.5%)


 NUMBER OF SORTED TWO-ELECTRON INTEGRALS:     230799.     BUFFER LENGTH:  32768
 NUMBER OF SEGMENTS:   1  SEGMENT LENGTH:     230799      RECORD LENGTH: 524288

 Memory used in sort:       0.79 MW

 SORT1 READ      450560. AND WROTE      192195. INTEGRALS IN      1 RECORDS. CPU TIME:     0.01 SEC, REAL TIME:     0.01 SEC
 SORT2 READ      192195. AND WROTE      230799. INTEGRALS IN      7 RECORDS. CPU TIME:     0.09 SEC, REAL TIME:     0.10 SEC

 FILE SIZES:   FILE 1:    31.9 MBYTE,  FILE 4:     4.2 MBYTE,   TOTAL:     36.1 MBYTE

 OPERATOR DM      FOR CENTER  0  COORDINATES:    0.000000    0.000000    0.000000


 **********************************************************************************************************************************
 DATASETS  * FILE   NREC   LENGTH (MB)   RECORD NAMES
              1      19       31.01       500      700      610      900      950      970     1000      129      960     1100   
                                          VAR     GEOM    BASINP   SYMINP    ZMAT    AOBASIS   BASIS     P2S    ABASIS      S 
                                         1400     1410     1200     1210     1080     1600     1650     1300     1700   
                                           T        V       H0       H01     AOSYM     SMH    MOLCAS    ERIS     OPER   

              3       5       14.79       500      610      700     1000     2100   
                                          VAR    BASINP    GEOM     BASIS     RHF  

 PROGRAMS   *        TOTAL       INT   RESTART
 CPU TIMES  *         0.44      0.32      0.01
 REAL TIME  *         0.63 SEC
 DISK USED  *        51.14 MB
 **********************************************************************************************************************************


 PROGRAM * CCSD (Closed-shell coupled cluster)     Authors: C. Hampel, H.-J. Werner, 1991, M. Deegan, P.J. Knowles, 1992


 Input parameters for THRESH:

 ENERGY   =    1.00D-10
 COEFF    =    1.00D-12
 PRINTCI  =    0.000000
 THRPRINT =    0.000000

 Convergence thresholds:  THRVAR = 1.00D-24  THRDEN = 1.00D-10

 Number of core orbitals:           2 (   1   0   0   0   1   0   0   0 )
 Number of closed-shell orbitals:   1 (   1   0   0   0   0   0   0   0 )
 Number of external orbitals:      57 (  11   7   7   3  12   7   7   3 )

 Molecular orbitals read from record     2100.3  Type=RHF/CANONICAL (state 1.1)

 Number of N-1 electron functions:               0
 Number of N-2 electron functions:               1
 Number of singly external CSFs:                 0
 Number of doubly external CSFs:               268
 Total number of CSFs:                         269

 Length of J-op  integral file:               0.00 MB
 Length of K-op  integral file:               0.07 MB
 Length of 3-ext integral record:             0.00 MB

 Integral transformation finished. Total CPU:   0.00 sec, npass=  1  Memory used:   0.08 MW

 Reference energy:                    -14.87113611

 MP2 singlet pair energy:              -0.02113221
 MP2 triplet pair energy:               0.00000000
 MP2 correlation energy:               -0.02113221
 MP2 total energy:                    -14.89226832

 SCS-MP2 correlation energy:           -0.02535865   (PS=  1.200000  PT=  0.333333)
 SCS-MP2 total energy:                -14.89649476

 ITER.      SQ.NORM     CORR.ENERGY   TOTAL ENERGY   ENERGY CHANGE        DEN1      VAR(S)    VAR(P)  DIIS     TIME  TIME/IT
   1      1.05034631    -0.02829878   -14.89943490    -0.00716657    -0.00358608  0.00D+00  0.26D-02  1  1     0.01     0.01
   2      1.07805669    -0.03139792   -14.90253403    -0.00309914    -0.00444668  0.00D+00  0.53D-03  2  2     0.02     0.01
   3      1.09730311    -0.03179267   -14.90292878    -0.00039475    -0.00225601  0.00D+00  0.58D-04  3  3     0.02     0.01
   4      1.10184618    -0.03179182   -14.90292794     0.00000085    -0.00027876  0.00D+00  0.71D-05  4  4     0.03     0.01
   5      1.10358617    -0.03185412   -14.90299023    -0.00006229    -0.00012613  0.00D+00  0.11D-05  5  5     0.03     0.01
   6      1.10371757    -0.03182252   -14.90295863     0.00003160    -0.00000038  0.00D+00  0.13D-06  6  6     0.04     0.01
   7      1.10379670    -0.03183033   -14.90296645    -0.00000781    -0.00000409  0.00D+00  0.11D-07  6  1     0.04     0.01
   8      1.10378330    -0.03182881   -14.90296492     0.00000152     0.00000150  0.00D+00  0.11D-08  6  2     0.05     0.01
   9      1.10378157    -0.03182908   -14.90296519    -0.00000027     0.00000016  0.00D+00  0.17D-09  6  3     0.05     0.01
  10      1.10378414    -0.03182902   -14.90296514     0.00000005    -0.00000030  0.00D+00  0.12D-10  6  4     0.05     0.00
  11      1.10378455    -0.03182901   -14.90296512     0.00000001    -0.00000007  0.00D+00  0.20D-11  6  5     0.06     0.00
  12      1.10378438    -0.03182901   -14.90296512    -0.00000000     0.00000001  0.00D+00  0.47D-12  6  6     0.06     0.00
  13      1.10378427    -0.03182901   -14.90296513    -0.00000000     0.00000001  0.00D+00  0.56D-13  6  1     0.06     0.00
  14      1.10378430    -0.03182901   -14.90296513     0.00000000    -0.00000000  0.00D+00  0.13D-13  6  2     0.07     0.00
  15      1.10378429    -0.03182901   -14.90296513     0.00000000    -0.00000000  0.00D+00  0.20D-14  6  3     0.07     0.00
  16      1.10378427    -0.03182901   -14.90296513    -0.00000000     0.00000000  0.00D+00  0.29D-15  6  4     0.08     0.00
  17      1.10378427    -0.03182901   -14.90296513    -0.00000000     0.00000000  0.00D+00  0.56D-16  6  5     0.08     0.00
  18      1.10378426    -0.03182901   -14.90296513    -0.00000000     0.00000000  0.00D+00  0.50D-17  6  6     0.08     0.00
  19      1.10378426    -0.03182901   -14.90296513    -0.00000000     0.00000000  0.00D+00  0.64D-18  6  1     0.09     0.00
  20      1.10378426    -0.03182901   -14.90296513    -0.00000000     0.00000000  0.00D+00  0.21D-18  6  2     0.09     0.00
  21      1.10378426    -0.03182901   -14.90296513     0.00000000    -0.00000000  0.00D+00  0.41D-19  6  3     0.09     0.00
  22      1.10378426    -0.03182901   -14.90296513     0.00000000    -0.00000000  0.00D+00  0.90D-20  6  4     0.10     0.00
  23      1.10378426    -0.03182901   -14.90296513    -0.00000000    -0.00000000  0.00D+00  0.15D-20  6  5     0.10     0.00
  24      1.10378426    -0.03182901   -14.90296513    -0.00000000     0.00000000  0.00D+00  0.31D-21  6  6     0.10     0.00
  25      1.10378426    -0.03182901   -14.90296513     0.00000000    -0.00000000  0.00D+00  0.73D-22  6  1     0.10     0.00
  26      1.10378426    -0.03182901   -14.90296513     0.00000000    -0.00000000  0.00D+00  0.13D-22  6  2     0.11     0.00
  27      1.10378426    -0.03182901   -14.90296513     0.00000000    -0.00000000  0.00D+00  0.20D-23  6  3     0.11     0.00
  28      1.10378426    -0.03182901   -14.90296513     0.00000000    -0.00000000  0.00D+00  0.37D-24  6  4     0.11     0.00


 Doubles amplitudes (print threshold =  0.000E+00):

         I         J         SYM. A    SYM. B    A         B      T(IJ, AB)

         1         1         1         1         1         1     -0.04032790
         1         1         1         1         1         2      0.05209866
         1         1         1         1         1         3      0.00421542
         1         1         1         1         1         4      0.00000000
         1         1         1         1         1         5     -0.02478203
         1         1         1         1         1         6     -0.00825723
         1         1         1         1         1         7     -0.00000000
         1         1         1         1         1         8     -0.00282601
         1         1         1         1         1         9     -0.00000000
         1         1         1         1         1        10     -0.00786575
         1         1         1         1         1        11     -0.00003847
         1         1         1         1         2         1      0.05209866
         1         1         1         1         2         2     -0.07078798
         1         1         1         1         2         3     -0.00206481
         1         1         1         1         2         4     -0.00000000
         1         1         1         1         2         5      0.03448682
         1         1         1         1         2         6      0.01281014
         1         1         1         1         2         7     -0.00000000
         1         1         1         1         2         8      0.00507105
         1         1         1         1         2         9      0.00000000
         1         1         1         1         2        10      0.01142915
         1         1         1         1         2        11     -0.00008298
         1         1         1         1         3         1      0.00421542
         1         1         1         1         3         2     -0.00206481
         1         1         1         1         3         3     -0.00492239
         1         1         1         1         3         4     -0.00000000
         1         1         1         1         3         5      0.00081561
         1         1         1         1         3         6     -0.00179219
         1         1         1         1         3         7      0.00000000
         1         1         1         1         3         8     -0.00105121
         1         1         1         1         3         9     -0.00000000
         1         1         1         1         3        10      0.00086547
         1         1         1         1         3        11      0.00049258
         1         1         1         1         4         1      0.00000000
         1         1         1         1         4         2     -0.00000000
         1         1         1         1         4         3     -0.00000000
         1         1         1         1         4         4     -0.00549647
         1         1         1         1         4         5      0.00000000
         1         1         1         1         4         6     -0.00000000
         1         1         1         1         4         7     -0.00314291
         1         1         1         1         4         8     -0.00000000
         1         1         1         1         4         9     -0.00116303
         1         1         1         1         4        10     -0.00000000
         1         1         1         1         4        11      0.00000000
         1         1         1         1         5         1     -0.02478203
         1         1         1         1         5         2      0.03448682
         1         1         1         1         5         3      0.00081561
         1         1         1         1         5         4      0.00000000
         1         1         1         1         5         5     -0.01839241
         1         1         1         1         5         6     -0.00717677
         1         1         1         1         5         7      0.00000000
         1         1         1         1         5         8     -0.00330925
         1         1         1         1         5         9     -0.00000000
         1         1         1         1         5        10     -0.00751904
         1         1         1         1         5        11     -0.00002669
         1         1         1         1         6         1     -0.00825723
         1         1         1         1         6         2      0.01281014
         1         1         1         1         6         3     -0.00179219
         1         1         1         1         6         4     -0.00000000
         1         1         1         1         6         5     -0.00717677
         1         1         1         1         6         6     -0.00478405
         1         1         1         1         6         7     -0.00000000
         1         1         1         1         6         8     -0.00239050
         1         1         1         1         6         9     -0.00000000
         1         1         1         1         6        10     -0.00383809
         1         1         1         1         6        11      0.00026472
         1         1         1         1         7         1     -0.00000000
         1         1         1         1         7         2     -0.00000000
         1         1         1         1         7         3      0.00000000
         1         1         1         1         7         4     -0.00314291
         1         1         1         1         7         5      0.00000000
         1         1         1         1         7         6     -0.00000000
         1         1         1         1         7         7     -0.00348156
         1         1         1         1         7         8     -0.00000000
         1         1         1         1         7         9     -0.00122399
         1         1         1         1         7        10      0.00000000
         1         1         1         1         7        11      0.00000000
         1         1         1         1         8         1     -0.00282601
         1         1         1         1         8         2      0.00507105
         1         1         1         1         8         3     -0.00105121
         1         1         1         1         8         4     -0.00000000
         1         1         1         1         8         5     -0.00330925
         1         1         1         1         8         6     -0.00239050
         1         1         1         1         8         7     -0.00000000
         1         1         1         1         8         8     -0.00115608
         1         1         1         1         8         9     -0.00000000
         1         1         1         1         8        10     -0.00135115
         1         1         1         1         8        11      0.00032843
         1         1         1         1         9         1     -0.00000000
         1         1         1         1         9         2      0.00000000
         1         1         1         1         9         3     -0.00000000
         1         1         1         1         9         4     -0.00116303
         1         1         1         1         9         5     -0.00000000
         1         1         1         1         9         6     -0.00000000
         1         1         1         1         9         7     -0.00122399
         1         1         1         1         9         8     -0.00000000
         1         1         1         1         9         9     -0.00137106
         1         1         1         1         9        10      0.00000000
         1         1         1         1         9        11     -0.00000000
         1         1         1         1        10         1     -0.00786575
         1         1         1         1        10         2      0.01142915
         1         1         1         1        10         3      0.00086547
         1         1         1         1        10         4     -0.00000000
         1         1         1         1        10         5     -0.00751904
         1         1         1         1        10         6     -0.00383809
         1         1         1         1        10         7      0.00000000
         1         1         1         1        10         8     -0.00135115
         1         1         1         1        10         9      0.00000000
         1         1         1         1        10        10     -0.00460259
         1         1         1         1        10        11     -0.00010880
         1         1         1         1        11         1     -0.00003847
         1         1         1         1        11         2     -0.00008298
         1         1         1         1        11         3      0.00049258
         1         1         1         1        11         4      0.00000000
         1         1         1         1        11         5     -0.00002669
         1         1         1         1        11         6      0.00026472
         1         1         1         1        11         7      0.00000000
         1         1         1         1        11         8      0.00032843
         1         1         1         1        11         9     -0.00000000
         1         1         1         1        11        10     -0.00010880
         1         1         1         1        11        11     -0.00085501
         1         1         2         2         1         1     -0.09843291
         1         1         2         2         1         2     -0.08408389
         1         1         2         2         1         3     -0.03064945
         1         1         2         2         1         4     -0.01400859
         1         1         2         2         1         5      0.00000000
         1         1         2         2         1         6     -0.01263926
         1         1         2         2         1         7      0.00137262
         1         1         2         2         2         1     -0.08408389
         1         1         2         2         2         2     -0.07389643
         1         1         2         2         2         3     -0.02749440
         1         1         2         2         2         4     -0.01295780
         1         1         2         2         2         5      0.00000000
         1         1         2         2         2         6     -0.01296755
         1         1         2         2         2         7      0.00122183
         1         1         2         2         3         1     -0.03064945
         1         1         2         2         3         2     -0.02749440
         1         1         2         2         3         3     -0.01213016
         1         1         2         2         3         4     -0.00475568
         1         1         2         2         3         5     -0.00000000
         1         1         2         2         3         6     -0.00640063
         1         1         2         2         3         7     -0.00002405
         1         1         2         2         4         1     -0.01400859
         1         1         2         2         4         2     -0.01295780
         1         1         2         2         4         3     -0.00475568
         1         1         2         2         4         4     -0.00352045
         1         1         2         2         4         5      0.00000000
         1         1         2         2         4         6     -0.00407836
         1         1         2         2         4         7      0.00050725
         1         1         2         2         5         1      0.00000000
         1         1         2         2         5         2      0.00000000
         1         1         2         2         5         3     -0.00000000
         1         1         2         2         5         4      0.00000000
         1         1         2         2         5         5     -0.00193992
         1         1         2         2         5         6     -0.00000000
         1         1         2         2         5         7     -0.00000000
         1         1         2         2         6         1     -0.01263926
         1         1         2         2         6         2     -0.01296755
         1         1         2         2         6         3     -0.00640063
         1         1         2         2         6         4     -0.00407836
         1         1         2         2         6         5     -0.00000000
         1         1         2         2         6         6     -0.00596654
         1         1         2         2         6         7      0.00007868
         1         1         2         2         7         1      0.00137262
         1         1         2         2         7         2      0.00122183
         1         1         2         2         7         3     -0.00002405
         1         1         2         2         7         4      0.00050725
         1         1         2         2         7         5     -0.00000000
         1         1         2         2         7         6      0.00007868
         1         1         2         2         7         7     -0.00056287
         1         1         3         3         1         1     -0.09843291
         1         1         3         3         1         2     -0.08408389
         1         1         3         3         1         3     -0.03064945
         1         1         3         3         1         4     -0.01400859
         1         1         3         3         1         5     -0.00000000
         1         1         3         3         1         6     -0.01263926
         1         1         3         3         1         7      0.00137262
         1         1         3         3         2         1     -0.08408389
         1         1         3         3         2         2     -0.07389643
         1         1         3         3         2         3     -0.02749440
         1         1         3         3         2         4     -0.01295780
         1         1         3         3         2         5     -0.00000000
         1         1         3         3         2         6     -0.01296755
         1         1         3         3         2         7      0.00122183
         1         1         3         3         3         1     -0.03064945
         1         1         3         3         3         2     -0.02749440
         1         1         3         3         3         3     -0.01213016
         1         1         3         3         3         4     -0.00475568
         1         1         3         3         3         5      0.00000000
         1         1         3         3         3         6     -0.00640063
         1         1         3         3         3         7     -0.00002405
         1         1         3         3         4         1     -0.01400859
         1         1         3         3         4         2     -0.01295780
         1         1         3         3         4         3     -0.00475568
         1         1         3         3         4         4     -0.00352045
         1         1         3         3         4         5     -0.00000000
         1         1         3         3         4         6     -0.00407836
         1         1         3         3         4         7      0.00050725
         1         1         3         3         5         1     -0.00000000
         1         1         3         3         5         2     -0.00000000
         1         1         3         3         5         3      0.00000000
         1         1         3         3         5         4     -0.00000000
         1         1         3         3         5         5     -0.00193992
         1         1         3         3         5         6      0.00000000
         1         1         3         3         5         7      0.00000000
         1         1         3         3         6         1     -0.01263926
         1         1         3         3         6         2     -0.01296755
         1         1         3         3         6         3     -0.00640063
         1         1         3         3         6         4     -0.00407836
         1         1         3         3         6         5      0.00000000
         1         1         3         3         6         6     -0.00596654
         1         1         3         3         6         7      0.00007868
         1         1         3         3         7         1      0.00137262
         1         1         3         3         7         2      0.00122183
         1         1         3         3         7         3     -0.00002405
         1         1         3         3         7         4      0.00050725
         1         1         3         3         7         5      0.00000000
         1         1         3         3         7         6      0.00007868
         1         1         3         3         7         7     -0.00056287
         1         1         4         4         1         1     -0.00549647
         1         1         4         4         1         2     -0.00314291
         1         1         4         4         1         3     -0.00116303
         1         1         4         4         2         1     -0.00314291
         1         1         4         4         2         2     -0.00348156
         1         1         4         4         2         3     -0.00122399
         1         1         4         4         3         1     -0.00116303
         1         1         4         4         3         2     -0.00122399
         1         1         4         4         3         3     -0.00137106
         1         1         5         5         1         1     -0.07108940
         1         1         5         5         1         2      0.04964887
         1         1         5         5         1         3     -0.01548290
         1         1         5         5         1         4     -0.03290028
         1         1         5         5         1         5      0.00000000
         1         1         5         5         1         6      0.00600513
         1         1         5         5         1         7     -0.01621214
         1         1         5         5         1         8     -0.00000000
         1         1         5         5         1         9      0.00203188
         1         1         5         5         1        10      0.00000000
         1         1         5         5         1        11      0.00242583
         1         1         5         5         1        12     -0.00052227
         1         1         5         5         2         1      0.04964887
         1         1         5         5         2         2     -0.03520780
         1         1         5         5         2         3      0.01107594
         1         1         5         5         2         4      0.02433253
         1         1         5         5         2         5     -0.00000000
         1         1         5         5         2         6     -0.00452713
         1         1         5         5         2         7      0.01274063
         1         1         5         5         2         8     -0.00000000
         1         1         5         5         2         9     -0.00158784
         1         1         5         5         2        10     -0.00000000
         1         1         5         5         2        11     -0.00215188
         1         1         5         5         2        12      0.00044890
         1         1         5         5         3         1     -0.01548290
         1         1         5         5         3         2      0.01107594
         1         1         5         5         3         3     -0.00379000
         1         1         5         5         3         4     -0.00778653
         1         1         5         5         3         5     -0.00000000
         1         1         5         5         3         6      0.00169140
         1         1         5         5         3         7     -0.00463885
         1         1         5         5         3         8     -0.00000000
         1         1         5         5         3         9      0.00089139
         1         1         5         5         3        10      0.00000000
         1         1         5         5         3        11      0.00096631
         1         1         5         5         3        12     -0.00019726
         1         1         5         5         4         1     -0.03290028
         1         1         5         5         4         2      0.02433253
         1         1         5         5         4         3     -0.00778653
         1         1         5         5         4         4     -0.01925011
         1         1         5         5         4         5     -0.00000000
         1         1         5         5         4         6      0.00374414
         1         1         5         5         4         7     -0.01173516
         1         1         5         5         4         8     -0.00000000
         1         1         5         5         4         9      0.00099283
         1         1         5         5         4        10      0.00000000
         1         1         5         5         4        11      0.00242570
         1         1         5         5         4        12     -0.00051056
         1         1         5         5         5         1      0.00000000
         1         1         5         5         5         2     -0.00000000
         1         1         5         5         5         3     -0.00000000
         1         1         5         5         5         4     -0.00000000
         1         1         5         5         5         5     -0.00153278
         1         1         5         5         5         6     -0.00000000
         1         1         5         5         5         7      0.00000000
         1         1         5         5         5         8     -0.00009805
         1         1         5         5         5         9     -0.00000000
         1         1         5         5         5        10     -0.00093270
         1         1         5         5         5        11      0.00000000
         1         1         5         5         5        12      0.00000000
         1         1         5         5         6         1      0.00600513
         1         1         5         5         6         2     -0.00452713
         1         1         5         5         6         3      0.00169140
         1         1         5         5         6         4      0.00374414
         1         1         5         5         6         5     -0.00000000
         1         1         5         5         6         6     -0.00132263
         1         1         5         5         6         7      0.00328392
         1         1         5         5         6         8     -0.00000000
         1         1         5         5         6         9     -0.00093934
         1         1         5         5         6        10      0.00000000
         1         1         5         5         6        11     -0.00123992
         1         1         5         5         6        12      0.00036208
         1         1         5         5         7         1     -0.01621214
         1         1         5         5         7         2      0.01274063
         1         1         5         5         7         3     -0.00463885
         1         1         5         5         7         4     -0.01173516
         1         1         5         5         7         5      0.00000000
         1         1         5         5         7         6      0.00328392
         1         1         5         5         7         7     -0.00905704
         1         1         5         5         7         8      0.00000000
         1         1         5         5         7         9      0.00064831
         1         1         5         5         7        10      0.00000000
         1         1         5         5         7        11      0.00262976
         1         1         5         5         7        12     -0.00065602
         1         1         5         5         8         1     -0.00000000
         1         1         5         5         8         2     -0.00000000
         1         1         5         5         8         3     -0.00000000
         1         1         5         5         8         4     -0.00000000
         1         1         5         5         8         5     -0.00009805
         1         1         5         5         8         6     -0.00000000
         1         1         5         5         8         7      0.00000000
         1         1         5         5         8         8     -0.00035929
         1         1         5         5         8         9     -0.00000000
         1         1         5         5         8        10     -0.00013461
         1         1         5         5         8        11      0.00000000
         1         1         5         5         8        12      0.00000000
         1         1         5         5         9         1      0.00203188
         1         1         5         5         9         2     -0.00158784
         1         1         5         5         9         3      0.00089139
         1         1         5         5         9         4      0.00099283
         1         1         5         5         9         5     -0.00000000
         1         1         5         5         9         6     -0.00093934
         1         1         5         5         9         7      0.00064831
         1         1         5         5         9         8     -0.00000000
         1         1         5         5         9         9     -0.00058715
         1         1         5         5         9        10      0.00000000
         1         1         5         5         9        11     -0.00038001
         1         1         5         5         9        12      0.00023745
         1         1         5         5        10         1      0.00000000
         1         1         5         5        10         2     -0.00000000
         1         1         5         5        10         3      0.00000000
         1         1         5         5        10         4      0.00000000
         1         1         5         5        10         5     -0.00093270
         1         1         5         5        10         6      0.00000000
         1         1         5         5        10         7      0.00000000
         1         1         5         5        10         8     -0.00013461
         1         1         5         5        10         9      0.00000000
         1         1         5         5        10        10     -0.00156401
         1         1         5         5        10        11      0.00000000
         1         1         5         5        10        12      0.00000000
         1         1         5         5        11         1      0.00242583
         1         1         5         5        11         2     -0.00215188
         1         1         5         5        11         3      0.00096631
         1         1         5         5        11         4      0.00242570
         1         1         5         5        11         5      0.00000000
         1         1         5         5        11         6     -0.00123992
         1         1         5         5        11         7      0.00262976
         1         1         5         5        11         8      0.00000000
         1         1         5         5        11         9     -0.00038001
         1         1         5         5        11        10      0.00000000
         1         1         5         5        11        11     -0.00175337
         1         1         5         5        11        12      0.00051254
         1         1         5         5        12         1     -0.00052227
         1         1         5         5        12         2      0.00044890
         1         1         5         5        12         3     -0.00019726
         1         1         5         5        12         4     -0.00051056
         1         1         5         5        12         5      0.00000000
         1         1         5         5        12         6      0.00036208
         1         1         5         5        12         7     -0.00065602
         1         1         5         5        12         8      0.00000000
         1         1         5         5        12         9      0.00023745
         1         1         5         5        12        10      0.00000000
         1         1         5         5        12        11      0.00051254
         1         1         5         5        12        12     -0.00061210
         1         1         6         6         1         1     -0.00121855
         1         1         6         6         1         2     -0.00229936
         1         1         6         6         1         3     -0.00075405
         1         1         6         6         1         4     -0.00027849
         1         1         6         6         1         5     -0.00000000
         1         1         6         6         1         6      0.00060020
         1         1         6         6         1         7     -0.00025940
         1         1         6         6         2         1     -0.00229936
         1         1         6         6         2         2     -0.00510751
         1         1         6         6         2         3     -0.00174174
         1         1         6         6         2         4     -0.00116379
         1         1         6         6         2         5      0.00000000
         1         1         6         6         2         6      0.00147917
         1         1         6         6         2         7     -0.00094671
         1         1         6         6         3         1     -0.00075405
         1         1         6         6         3         2     -0.00174174
         1         1         6         6         3         3     -0.00103371
         1         1         6         6         3         4     -0.00051641
         1         1         6         6         3         5      0.00000000
         1         1         6         6         3         6      0.00062566
         1         1         6         6         3         7     -0.00056777
         1         1         6         6         4         1     -0.00027849
         1         1         6         6         4         2     -0.00116379
         1         1         6         6         4         3     -0.00051641
         1         1         6         6         4         4     -0.00042569
         1         1         6         6         4         5     -0.00000000
         1         1         6         6         4         6      0.00079043
         1         1         6         6         4         7     -0.00076231
         1         1         6         6         5         1     -0.00000000
         1         1         6         6         5         2      0.00000000
         1         1         6         6         5         3      0.00000000
         1         1         6         6         5         4     -0.00000000
         1         1         6         6         5         5     -0.00093689
         1         1         6         6         5         6      0.00000000
         1         1         6         6         5         7      0.00000000
         1         1         6         6         6         1      0.00060020
         1         1         6         6         6         2      0.00147917
         1         1         6         6         6         3      0.00062566
         1         1         6         6         6         4      0.00079043
         1         1         6         6         6         5      0.00000000
         1         1         6         6         6         6     -0.00041924
         1         1         6         6         6         7      0.00043305
         1         1         6         6         7         1     -0.00025940
         1         1         6         6         7         2     -0.00094671
         1         1         6         6         7         3     -0.00056777
         1         1         6         6         7         4     -0.00076231
         1         1         6         6         7         5      0.00000000
         1         1         6         6         7         6      0.00043305
         1         1         6         6         7         7     -0.00133965
         1         1         7         7         1         1     -0.00121855
         1         1         7         7         1         2     -0.00229936
         1         1         7         7         1         3     -0.00075405
         1         1         7         7         1         4     -0.00027849
         1         1         7         7         1         5      0.00000000
         1         1         7         7         1         6      0.00060020
         1         1         7         7         1         7     -0.00025940
         1         1         7         7         2         1     -0.00229936
         1         1         7         7         2         2     -0.00510751
         1         1         7         7         2         3     -0.00174174
         1         1         7         7         2         4     -0.00116379
         1         1         7         7         2         5     -0.00000000
         1         1         7         7         2         6      0.00147917
         1         1         7         7         2         7     -0.00094671
         1         1         7         7         3         1     -0.00075405
         1         1         7         7         3         2     -0.00174174
         1         1         7         7         3         3     -0.00103371
         1         1         7         7         3         4     -0.00051641
         1         1         7         7         3         5     -0.00000000
         1         1         7         7         3         6      0.00062566
         1         1         7         7         3         7     -0.00056777
         1         1         7         7         4         1     -0.00027849
         1         1         7         7         4         2     -0.00116379
         1         1         7         7         4         3     -0.00051641
         1         1         7         7         4         4     -0.00042569
         1         1         7         7         4         5      0.00000000
         1         1         7         7         4         6      0.00079043
         1         1         7         7         4         7     -0.00076231
         1         1         7         7         5         1      0.00000000
         1         1         7         7         5         2     -0.00000000
         1         1         7         7         5         3     -0.00000000
         1         1         7         7         5         4      0.00000000
         1         1         7         7         5         5     -0.00093689
         1         1         7         7         5         6     -0.00000000
         1         1         7         7         5         7     -0.00000000
         1         1         7         7         6         1      0.00060020
         1         1         7         7         6         2      0.00147917
         1         1         7         7         6         3      0.00062566
         1         1         7         7         6         4      0.00079043
         1         1         7         7         6         5     -0.00000000
         1         1         7         7         6         6     -0.00041924
         1         1         7         7         6         7      0.00043305
         1         1         7         7         7         1     -0.00025940
         1         1         7         7         7         2     -0.00094671
         1         1         7         7         7         3     -0.00056777
         1         1         7         7         7         4     -0.00076231
         1         1         7         7         7         5     -0.00000000
         1         1         7         7         7         6      0.00043305
         1         1         7         7         7         7     -0.00133965
         1         1         8         8         1         1     -0.00153278
         1         1         8         8         1         2     -0.00009805
         1         1         8         8         1         3     -0.00093270
         1         1         8         8         2         1     -0.00009805
         1         1         8         8         2         2     -0.00035929
         1         1         8         8         2         3     -0.00013461
         1         1         8         8         3         1     -0.00093270
         1         1         8         8         3         2     -0.00013461
         1         1         8         8         3         3     -0.00156401


 RESULTS
 =======

  Reference energy                    -14.871136112507
  CCD singlet pair energy              -0.031829013860
  CCD triplet pair energy               0.000000000000
  CCD correlation energy               -0.031829013860

 !CCD total energy                    -14.902965126367

 Timing summary (sec):

 STEP                 CPU(USER)    SYS     CPU(TOT)    WALL
 CCSD iterations         0.12      0.02      0.14      0.13

 Program statistics:

 Available memory in ccsd:                39999196
 Min. memory needed in ccsd:                  8026
 Max. memory used in ccsd:                    8026
 Max. memory used in cckext:                 38989 (28 integral passes)



 **********************************************************************************************************************************
 DATASETS  * FILE   NREC   LENGTH (MB)   RECORD NAMES
              1      20       31.13       500      700      610      900      950      970     1000      129      960     1100   
                                          VAR     GEOM    BASINP   SYMINP    ZMAT    AOBASIS   BASIS     P2S    ABASIS      S 
                                         1400     1410     1200     1210     1080     1600     1650     1300     1700     1380   
                                           T        V       H0       H01     AOSYM     SMH    MOLCAS    ERIS     OPER     JKOP   

              3       5       14.79       500      610      700     1000     2100   
                                          VAR    BASINP    GEOM     BASIS     RHF  

 PROGRAMS   *        TOTAL      CCSD       INT   RESTART
 CPU TIMES  *         0.63      0.19      0.32      0.01
 REAL TIME  *         0.84 SEC
 DISK USED  *        51.14 MB
 **********************************************************************************************************************************
 Molecular orbitals read from record     2100.3  Type=RHF/CANONICAL (state 1.1)
 Occupation numbers read from record     2100.3  Type=RHF/RHF (state 1.1)
 Orbital energies read from record       2100.3  Type=RHF/CANONICAL (state 1.1)
 Redundancy group numbers read from rec  2100.3  Type=RHF/RHF (state 1.1)

 CCSD/cc-pVTZ energy=    -14.902965126367

            CCSD
    -14.90296513
 **********************************************************************************************************************************
 Molpro calculation terminated
