
 Primary working directories    : /scr/yuriaoto/job.023242/molpro.JjgTrlEUaD
 Secondary working directories  : /scr/yuriaoto/job.023242/molpro.JjgTrlEUaD
 Wavefunction directory         : /scr/yuriaoto/job.023242/
 Main file repository           : /scr/yuriaoto/job.023242/molpro.JjgTrlEUaD/

 id        : yuriaoto

 Nodes             nprocs
 t-rex.ufabc.int.br    1

 Using customized tuning parameters: mindgm=8; mindgv=16; mindgc=1; mindgr=1; noblas=0; minvec=7
 default implementation of scratch files=df  


 Variables initialized (933), CPU time= 0.01 sec
 ***,
 memory,40,m
 gprint,orbital,basis,civector
 gthresh,thrprint=0,printci=0.0
 file,3,wfu.dat,old
 
 {ccsd,CC_NORM_MAX=10.0
 thresh,printci=0.0,ENERGY=1.0E-10,COEFF=1.0E-12
 print,ref=1
 core,0
 wf,6,1,0;
 }
 
 Commands  initialized (760), CPU time= 0.00 sec, 617 directives.
 Default parameters read. Elapsed time= 0.03 sec

 Checking input...
 Passed
1


                                         ***  PROGRAM SYSTEM MOLPRO  ***
                                       Copyright, TTI GmbH Stuttgart, 2015
                                    Version 2019.2 linked Abr  7 2019 15:10:35


 **********************************************************************************************************************************
 LABEL *                                                                                 
  64 bit serial version                                                                  DATE: 30-May-20          TIME: 20:14:28  
 **********************************************************************************************************************************

 SHA1:             3a8a58c585c929645742fb5a1b7541a4ad1da699
 **********************************************************************************************************************************


 THRESHOLDS:

 ZERO    =  1.00D-12  ONEINT  =  1.00D-12  TWOINT  =  1.00D-11  PREFAC  =  1.00D-14  XXXXXX  =  1.00D-09  EORDER  =  1.00D-04
 ENERGY  =  0.00D+00  ETEST   =  0.00D+00  EDENS   =  0.00D+00  THRDEDEF=  1.00D-06  GRADIENT=  1.00D-02  STEP    =  1.00D-03
 ORBITAL =  1.00D-05  CIVEC   =  1.00D-05  COEFF   =  1.00D-04  PRINTCI =  0.00D+00  PUNCHCI =  9.90D+01  OPTGRAD =  3.00D-04
 OPTENERG=  1.00D-06  OPTSTEP =  3.00D-04  THRGRAD =  1.00D-10  COMPRESS=  1.00D-11  VARMIN  =  1.00D-07  VARMAX  =  1.00D-03
 THRDOUB =  0.00D+00  THRDIV  =  1.00D-05  THRRED  =  1.00D-07  THRPSP  =  1.00D+00  THRDC   =  1.00D-10  THRCS   =  1.00D-10
 THRNRM  =  1.00D-08  THREQ   =  0.00D+00  THRDE   =  1.00D+00  THRREF  =  1.00D-05  SPARFAC =  1.00D+00  THRDLP  =  1.00D-07
 THRDIA  =  1.00D-10  THRDLS  =  1.00D-07  THRGPS  =  0.00D+00  THRKEX  =  0.00D+00  THRDIS  =  2.00D-01  THRVAR  =  1.00D-10
 THRLOC  =  1.00D-06  THRGAP  =  1.00D-06  THRLOCT = -1.00D+00  THRGAPT = -1.00D+00  THRORB  =  1.00D-06  THRMLTP =  0.00D+00
 THRCPQCI=  1.00D-10  KEXTA   =  0.00D+00  THRCOARS=  0.00D+00  SYMTOL  =  1.00D-06  GRADTOL =  1.00D-06  THROVL  =  1.00D-08
 THRORTH =  1.00D-08  GRID    =  1.00D-06  GRIDMAX =  1.00D-03  DTMAX   =  0.00D+00  THROCCDE=  1.00D-01  THROCCDE=  1.00D-01
 THRPRINT=  0.00D+00


 Variable memory set to   40000000 words,  buffer space 



 Permanent file  3  wfu.dat  assigned.  Implementation=df    Size= 14.10 MB


 PROGRAM * RESTART 


 Reading variables from file 3

 _FNUC           =      0.00000000
 _BASIS          =    CC-PVTZ
 _NELEC          =      6.00000000
 _PROGRAM        =    RHF-SCF
 _DMX_SCF        =      0.00000000
 _DMY_SCF        =      0.00000000
 _DMZ_SCF        =      0.00000000
 _HOMO           =      2.10000000
 _EHOMO          =     -0.18224319
 _LUMO           =      2.50000000
 _ELUMO          =      0.00671464
 _ENERGY         =    -14.87113611
 _ENERGY_METHOD  =    RHF
 _ENERGY_BASIS   =    cc-pVTZ
 _ENUC           =      1.80000000
 _EPS1(1:13)     =     -2.45288987    -0.18224319     0.03854712     0.10701166     0.14531626     0.20132214
                        0.29578721     0.48884990     0.54279194     0.67005534     0.71011391     0.76079758
                        3.02244577
 _EPS2(1:7)      =      0.02716422     0.11604575     0.23979625     0.45701108     0.51087424     0.65663878
                        0.75753063
 _EPS3(1:7)      =      0.02716422     0.11604575     0.23979625     0.45701108     0.51087424     0.65663878
                        0.75753063
 _EPS4(1:3)      =      0.20132214     0.54279194     0.71011391
 _EPS5(1:13)     =     -2.45251703     0.00671464     0.06418201     0.15568446     0.23456666     0.26036282
                        0.39933341     0.51839623     0.69667587     0.74973264     0.77175124     1.01349064
                        3.16580891
 _EPS6(1:7)      =      0.05594314     0.16306709     0.32645184     0.46064971     0.59133328     0.71550490
                        0.96090549
 _EPS7(1:7)      =      0.05594314     0.16306709     0.32645184     0.46064971     0.59133328     0.71550490
                        0.96090549
 _EPS8(1:3)      =      0.26036282     0.69667587     0.77175124
 _IPROC_MPP      =      0.00000000
 _IPROC_MPPX     =      0.00000000
 _ORBITAL        =   2100.30000000
 _STATUS         =      1.00000000
 _DATE           =    10-Feb-20
 _LASTORB        =    RHF
 _OUTPUT         =    /scr/yuriaoto/job.022757/RHF.xml
 _PGROUP         =    D2h 
 _TIME           =    10:55:45
 R               =      5.00000000

 Geometry written to block  1 of record 700


 **********************************************************************************************************************************
 DATASETS  * FILE   NREC   LENGTH (MB)   RECORD NAMES
              3       5       14.79       500      610      700     1000     2100   
                                          VAR    BASINP    GEOM     BASIS     RHF  

 PROGRAMS   *        TOTAL   RESTART
 CPU TIMES  *         0.08      0.01
 REAL TIME  *         0.11 SEC
 DISK USED  *        26.86 MB
 **********************************************************************************************************************************


 Recomputing integrals since basis changed


 Using spherical harmonics

 Library entry LI     S cc-pVTZ              selected for orbital group  1
 Library entry LI     P cc-pVTZ              selected for orbital group  1
 Library entry LI     D cc-pVTZ              selected for orbital group  1
 Library entry LI     F cc-pVTZ              selected for orbital group  1


 PROGRAM * SEWARD (Integral evaluation for generally contracted gaussian basis sets)     Author: Roland Lindh, 1990

 Geometry written to block  1 of record 700

 Orientation using atomic masses  
 Molecule type: Linear
 User-specified symmetry elements: X,Y,Z
 Symmetry elements: X,Y,Z
 Rotational constants:      20.8009354     20.8009354      0.0000000 GHz  (calculated with average atomic masses)

 Point group  D2h 



 ATOMIC COORDINATES

 NR  ATOM    CHARGE       X              Y              Z

   1  LI1     3.00    0.000000000    0.000000000   -2.500000000
   2  LI2     3.00    0.000000000    0.000000000    2.500000000

 Bond lengths in Bohr (Angstrom)

 1-2  5.000000000
     ( 2.645886055)


 BASIS DATA

   Nr Sym  Nuc  Type         Exponents   Contraction coefficients

    1.1 Ag    1  1s        5988.000000     0.000133   -0.000021    0.000000    0.000000
    2.1 Ag    2  1s         898.900000     0.001025   -0.000161    0.000000    0.000000
    3.1 Ag                  205.900000     0.005272   -0.000820    0.000000    0.000000
    4.1 Ag                   59.240000     0.020929   -0.003326    0.000000    0.000000
                             19.870000     0.066340   -0.010519    0.000000    0.000000
                              7.406000     0.165775   -0.028097    0.000000    0.000000
                              2.930000     0.315038   -0.055936    0.000000    0.000000
                              1.189000     0.393523   -0.099237    0.000000    0.000000
                              0.479800     0.190870   -0.112189    0.000000    0.000000
                              0.075090     0.005414    0.567889    1.000000    0.000000
                              0.028320    -0.001328    0.530382    0.000000    1.000000
    5.1 Ag    1  2pz          3.266000     0.008630    0.000000    0.000000
    6.1 Ag    2 -2pz          0.651100     0.047538    0.000000    0.000000
    7.1 Ag                    0.169600     0.209772    0.000000    0.000000
                              0.055780     0.528522    1.000000    0.000000
                              0.020500     0.382744    0.000000    1.000000
    8.1 Ag    1  3d0          0.190000     1.000000
              2  3d0   
    9.1 Ag    1  3d2+         0.190000     1.000000
              2  3d2+  
   10.1 Ag    1  3d0          0.072500     1.000000
              2  3d0   
   11.1 Ag    1  3d2+         0.072500     1.000000
              2  3d2+  
   12.1 Ag    1  4f0          0.127000     1.000000
              2 -4f0   
   13.1 Ag    1  4f2+         0.127000     1.000000
              2 -4f2+  
    1.2 B3u   1  2px          3.266000     0.008630    0.000000    0.000000
    2.2 B3u   2  2px          0.651100     0.047538    0.000000    0.000000
    3.2 B3u                   0.169600     0.209772    0.000000    0.000000
                              0.055780     0.528522    1.000000    0.000000
                              0.020500     0.382744    0.000000    1.000000
    4.2 B3u   1  3d1+         0.190000     1.000000
              2 -3d1+  
    5.2 B3u   1  3d1+         0.072500     1.000000
              2 -3d1+  
    6.2 B3u   1  4f1+         0.127000     1.000000
              2  4f1+  
    7.2 B3u   1  4f3+         0.127000     1.000000
              2  4f3+  
    1.3 B2u   1  2py          3.266000     0.008630    0.000000    0.000000
    2.3 B2u   2  2py          0.651100     0.047538    0.000000    0.000000
    3.3 B2u                   0.169600     0.209772    0.000000    0.000000
                              0.055780     0.528522    1.000000    0.000000
                              0.020500     0.382744    0.000000    1.000000
    4.3 B2u   1  3d1-         0.190000     1.000000
              2 -3d1-  
    5.3 B2u   1  3d1-         0.072500     1.000000
              2 -3d1-  
    6.3 B2u   1  4f1-         0.127000     1.000000
              2  4f1-  
    7.3 B2u   1  4f3-         0.127000     1.000000
              2  4f3-  
    1.4 B1g   1  3d2-         0.190000     1.000000
              2  3d2-  
    2.4 B1g   1  3d2-         0.072500     1.000000
              2  3d2-  
    3.4 B1g   1  4f2-         0.127000     1.000000
              2 -4f2-  
    1.5 B1u   1  1s        5988.000000     0.000133   -0.000021    0.000000    0.000000
    2.5 B1u   2 -1s         898.900000     0.001025   -0.000161    0.000000    0.000000
    3.5 B1u                 205.900000     0.005272   -0.000820    0.000000    0.000000
    4.5 B1u                  59.240000     0.020929   -0.003326    0.000000    0.000000
                             19.870000     0.066340   -0.010519    0.000000    0.000000
                              7.406000     0.165775   -0.028097    0.000000    0.000000
                              2.930000     0.315038   -0.055936    0.000000    0.000000
                              1.189000     0.393523   -0.099237    0.000000    0.000000
                              0.479800     0.190870   -0.112189    0.000000    0.000000
                              0.075090     0.005414    0.567889    1.000000    0.000000
                              0.028320    -0.001328    0.530382    0.000000    1.000000
    5.5 B1u   1  2pz          3.266000     0.008630    0.000000    0.000000
    6.5 B1u   2  2pz          0.651100     0.047538    0.000000    0.000000
    7.5 B1u                   0.169600     0.209772    0.000000    0.000000
                              0.055780     0.528522    1.000000    0.000000
                              0.020500     0.382744    0.000000    1.000000
    8.5 B1u   1  3d0          0.190000     1.000000
              2 -3d0   
    9.5 B1u   1  3d2+         0.190000     1.000000
              2 -3d2+  
   10.5 B1u   1  3d0          0.072500     1.000000
              2 -3d0   
   11.5 B1u   1  3d2+         0.072500     1.000000
              2 -3d2+  
   12.5 B1u   1  4f0          0.127000     1.000000
              2  4f0   
   13.5 B1u   1  4f2+         0.127000     1.000000
              2  4f2+  
    1.6 B2g   1  2px          3.266000     0.008630    0.000000    0.000000
    2.6 B2g   2 -2px          0.651100     0.047538    0.000000    0.000000
    3.6 B2g                   0.169600     0.209772    0.000000    0.000000
                              0.055780     0.528522    1.000000    0.000000
                              0.020500     0.382744    0.000000    1.000000
    4.6 B2g   1  3d1+         0.190000     1.000000
              2  3d1+  
    5.6 B2g   1  3d1+         0.072500     1.000000
              2  3d1+  
    6.6 B2g   1  4f1+         0.127000     1.000000
              2 -4f1+  
    7.6 B2g   1  4f3+         0.127000     1.000000
              2 -4f3+  
    1.7 B3g   1  2py          3.266000     0.008630    0.000000    0.000000
    2.7 B3g   2 -2py          0.651100     0.047538    0.000000    0.000000
    3.7 B3g                   0.169600     0.209772    0.000000    0.000000
                              0.055780     0.528522    1.000000    0.000000
                              0.020500     0.382744    0.000000    1.000000
    4.7 B3g   1  3d1-         0.190000     1.000000
              2  3d1-  
    5.7 B3g   1  3d1-         0.072500     1.000000
              2  3d1-  
    6.7 B3g   1  4f1-         0.127000     1.000000
              2 -4f1-  
    7.7 B3g   1  4f3-         0.127000     1.000000
              2 -4f3-  
    1.8 Au    1  3d2-         0.190000     1.000000
              2 -3d2-  
    2.8 Au    1  3d2-         0.072500     1.000000
              2 -3d2-  
    3.8 Au    1  4f2-         0.127000     1.000000
              2  4f2-  

 NUCLEAR CHARGE:                    6
 NUMBER OF PRIMITIVE AOS:          96
 NUMBER OF SYMMETRY AOS:           86
 NUMBER OF CONTRACTIONS:           60   (   13Ag  +    7B3u +    7B2u +    3B1g +   13B1u +    7B2g +    7B3g +    3Au  )
 NUMBER OF CORE ORBITALS:           2   (    1Ag  +    0B3u +    0B2u +    0B1g +    1B1u +    0B2g +    0B3g +    0Au  )
 NUMBER OF VALENCE ORBITALS:        8   (    2Ag  +    1B3u +    1B2u +    0B1g +    2B1u +    1B2g +    1B3g +    0Au  )


 NUCLEAR REPULSION ENERGY    1.80000000

 EXTRA SYMMETRY OF AOS IN SYMMETRY 1:   1 1 1 1 1 1 1 1 2 1   2 1 2
 EXTRA SYMMETRY OF AOS IN SYMMETRY 2:   1 1 1 1 1 1 2
 EXTRA SYMMETRY OF AOS IN SYMMETRY 3:   1 1 1 1 1 1 2
 EXTRA SYMMETRY OF AOS IN SYMMETRY 5:   1 1 1 1 1 1 1 1 2 1   2 1 2
 EXTRA SYMMETRY OF AOS IN SYMMETRY 6:   1 1 1 1 1 1 2
 EXTRA SYMMETRY OF AOS IN SYMMETRY 7:   1 1 1 1 1 1 2

 Eigenvalues of metric

         1 0.105E-02 0.623E-02 0.554E-01 0.144E+00 0.376E+00 0.389E+00 0.852E+00 0.121E+01
         2 0.163E-01 0.202E+00 0.443E+00 0.996E+00 0.120E+01 0.217E+01 0.466E+01
         3 0.163E-01 0.202E+00 0.443E+00 0.996E+00 0.120E+01 0.217E+01 0.466E+01
         4 0.376E+00 0.121E+01 0.236E+01
         5 0.953E-03 0.131E-02 0.820E-02 0.163E-01 0.171E+00 0.188E+00 0.335E+00 0.399E+00
         6 0.798E-02 0.188E-01 0.958E-01 0.281E+00 0.796E+00 0.128E+01 0.183E+01
         7 0.798E-02 0.188E-01 0.958E-01 0.281E+00 0.796E+00 0.128E+01 0.183E+01
         8 0.171E+00 0.399E+00 0.149E+01


 Contracted 2-electron integrals neglected if value below      1.0D-11
 AO integral compression algorithm  1   Integral accuracy      1.0D-11

     1.835 MB (compressed) written to integral file ( 55.5%)


 NUMBER OF SORTED TWO-ELECTRON INTEGRALS:     230799.     BUFFER LENGTH:  32768
 NUMBER OF SEGMENTS:   1  SEGMENT LENGTH:     230799      RECORD LENGTH: 524288

 Memory used in sort:       0.79 MW

 SORT1 READ      450560. AND WROTE      192195. INTEGRALS IN      1 RECORDS. CPU TIME:     0.01 SEC, REAL TIME:     0.01 SEC
 SORT2 READ      192195. AND WROTE      230799. INTEGRALS IN      7 RECORDS. CPU TIME:     0.09 SEC, REAL TIME:     0.10 SEC

 FILE SIZES:   FILE 1:    31.9 MBYTE,  FILE 4:     4.2 MBYTE,   TOTAL:     36.1 MBYTE

 OPERATOR DM      FOR CENTER  0  COORDINATES:    0.000000    0.000000    0.000000


 **********************************************************************************************************************************
 DATASETS  * FILE   NREC   LENGTH (MB)   RECORD NAMES
              1      19       31.01       500      700      610      900      950      970     1000      129      960     1100   
                                          VAR     GEOM    BASINP   SYMINP    ZMAT    AOBASIS   BASIS     P2S    ABASIS      S 
                                         1400     1410     1200     1210     1080     1600     1650     1300     1700   
                                           T        V       H0       H01     AOSYM     SMH    MOLCAS    ERIS     OPER   

              3       5       14.79       500      610      700     1000     2100   
                                          VAR    BASINP    GEOM     BASIS     RHF  

 PROGRAMS   *        TOTAL       INT   RESTART
 CPU TIMES  *         0.36      0.28      0.01
 REAL TIME  *         0.50 SEC
 DISK USED  *        51.14 MB
 **********************************************************************************************************************************


 PROGRAM * CCSD (Closed-shell coupled cluster)     Authors: C. Hampel, H.-J. Werner, 1991, M. Deegan, P.J. Knowles, 1992


 Input parameters for THRESH:

 ENERGY   =    1.00D-10
 COEFF    =    1.00D-12
 PRINTCI  =    0.000000
 THRPRINT =    0.000000

 Convergence thresholds:  THRVAR = 1.00D-24  THRDEN = 1.00D-10

 Number of closed-shell orbitals:   3 (   2   0   0   0   1   0   0   0 )
 Number of external orbitals:      57 (  11   7   7   3  12   7   7   3 )

 Molecular orbitals read from record     2100.3  Type=RHF/CANONICAL (state 1.1)

 Number of N-1 electron functions:               3
 Number of N-2 electron functions:               6
 Number of singly external CSFs:                34
 Number of doubly external CSFs:              2239
 Total number of CSFs:                        2274

 Length of J-op  integral file:               0.00 MB
 Length of K-op  integral file:               0.07 MB
 Length of 3-ext integral record:             0.00 MB

 Integral transformation finished. Total CPU:   0.00 sec, npass=  1  Memory used:   0.10 MW

 Reference energy:                    -14.87113611

 MP2 singlet pair energy:              -0.04440448
 MP2 triplet pair energy:              -0.00061015
 MP2 correlation energy:               -0.04501463
 MP2 total energy:                    -14.91615074

 SCS-MP2 correlation energy:           -0.05366502   (PS=  1.200000  PT=  0.333333)
 SCS-MP2 total energy:                -14.92480113

 ITER.      SQ.NORM     CORR.ENERGY   TOTAL ENERGY   ENERGY CHANGE        DEN1      VAR(S)    VAR(P)  DIIS     TIME  TIME/IT
   1      1.05349300    -0.05616616   -14.92730227    -0.01115153    -0.00692747  0.12D-03  0.25D-02  1  1     0.02     0.01
   2      1.07280116    -0.05883118   -14.92996729    -0.00266502    -0.00407382  0.60D-04  0.80D-03  2  2     0.03     0.01
   3      1.09727907    -0.05977259   -14.93090870    -0.00094141    -0.00311353  0.16D-05  0.70D-04  3  3     0.04     0.01
   4      1.10328939    -0.05976550   -14.93090161     0.00000709    -0.00053947  0.85D-06  0.14D-04  4  4     0.05     0.01
   5      1.10494208    -0.05978011   -14.93091623    -0.00001461    -0.00007375  0.38D-06  0.25D-05  5  5     0.06     0.01
   6      1.10555028    -0.05979073   -14.93092685    -0.00001062    -0.00003488  0.12D-06  0.53D-06  6  6     0.06     0.01
   7      1.10572192    -0.05978897   -14.93092509     0.00000176    -0.00000865  0.62D-07  0.72D-07  6  1     0.07     0.01
   8      1.10575698    -0.05978796   -14.93092407     0.00000101    -0.00000110  0.24D-07  0.15D-07  6  2     0.07     0.01
   9      1.10576815    -0.05978836   -14.93092448    -0.00000040    -0.00000051  0.63D-08  0.31D-08  6  3     0.08     0.01
  10      1.10577094    -0.05978828   -14.93092439     0.00000008    -0.00000046  0.10D-08  0.59D-09  6  4     0.09     0.01
  11      1.10577123    -0.05978823   -14.93092435     0.00000004    -0.00000018  0.10D-09  0.10D-09  6  5     0.10     0.01
  12      1.10577030    -0.05978822   -14.93092434     0.00000001     0.00000003  0.12D-10  0.23D-10  6  6     0.10     0.01
  13      1.10576939    -0.05978823   -14.93092434    -0.00000000     0.00000006  0.76D-12  0.53D-11  6  1     0.11     0.01
  14      1.10576864    -0.05978823   -14.93092434    -0.00000001     0.00000005  0.61D-13  0.13D-11  6  3     0.12     0.01
  15      1.10576813    -0.05978824   -14.93092435    -0.00000001     0.00000004  0.46D-13  0.21D-12  6  2     0.12     0.01
  16      1.10576795    -0.05978824   -14.93092435    -0.00000000     0.00000001  0.41D-13  0.59D-13  6  4     0.12     0.01
  17      1.10576781    -0.05978824   -14.93092435    -0.00000000     0.00000001  0.36D-14  0.59D-14  6  6     0.13     0.01
  18      1.10576779    -0.05978824   -14.93092435    -0.00000000     0.00000000  0.43D-15  0.90D-15  6  5     0.14     0.01
  19      1.10576779    -0.05978824   -14.93092435    -0.00000000     0.00000000  0.17D-16  0.12D-15  6  3     0.14     0.01
  20      1.10576779    -0.05978824   -14.93092435     0.00000000    -0.00000000  0.29D-17  0.23D-16  6  1     0.14     0.01
  21      1.10576779    -0.05978824   -14.93092435     0.00000000    -0.00000000  0.12D-17  0.40D-17  6  4     0.15     0.01
  22      1.10576779    -0.05978824   -14.93092435     0.00000000    -0.00000000  0.81D-19  0.78D-18  6  2     0.15     0.01
  23      1.10576779    -0.05978824   -14.93092435     0.00000000    -0.00000000  0.41D-19  0.26D-18  6  6     0.16     0.01
  24      1.10576779    -0.05978824   -14.93092435     0.00000000    -0.00000000  0.35D-20  0.41D-19  6  3     0.16     0.01
  25      1.10576779    -0.05978824   -14.93092435     0.00000000    -0.00000000  0.31D-21  0.54D-20  6  5     0.17     0.01
  26      1.10576779    -0.05978824   -14.93092435     0.00000000    -0.00000000  0.46D-22  0.88D-21  6  1     0.17     0.01
  27      1.10576779    -0.05978824   -14.93092435    -0.00000000    -0.00000000  0.27D-22  0.18D-21  6  4     0.18     0.01
  28      1.10576779    -0.05978824   -14.93092435    -0.00000000     0.00000000  0.67D-23  0.30D-22  6  2     0.18     0.01
  29      1.10576779    -0.05978824   -14.93092435    -0.00000000     0.00000000  0.12D-23  0.62D-23  6  6     0.19     0.01
  30      1.10576779    -0.05978824   -14.93092435    -0.00000000     0.00000000  0.44D-24  0.20D-23  6  3     0.19     0.01
  31      1.10576779    -0.05978824   -14.93092435     0.00000000     0.00000000  0.25D-24  0.11D-23  6  4     0.20     0.01
  32      1.10576779    -0.05978824   -14.93092435    -0.00000000     0.00000000  0.18D-24  0.70D-24  6  5     0.20     0.01

 Norm of t1 vector:      0.03735344      S-energy:    -0.00000000      T1 diagnostic:  0.01078301
                                                                       D1 diagnostic:  0.02610650

 Singles amplitudes (print threshold =  0.000E+00):

         I         SYM. A    A   T(IA)

         1         1         1      0.00017589
         1         1         2     -0.00062534
         1         1         3      0.00134771
         1         1         4      0.00000000
         1         1         5      0.00007411
         1         1         6     -0.00009155
         1         1         7     -0.00000000
         1         1         8      0.00163717
         1         1         9     -0.00000000
         1         1        10      0.00033729
         1         1        11     -0.00106532
         2         1         1      0.01725323
         2         1         2     -0.01870083
         2         1         3      0.00491607
         2         1         4     -0.00000000
         2         1         5      0.00291150
         2         1         6     -0.00053107
         2         1         7     -0.00000000
         2         1         8      0.00062824
         2         1         9     -0.00000000
         2         1        10     -0.00010443
         2         1        11     -0.00022189
         3         5         1     -0.00114864
         3         5         2      0.00115214
         3         5         3     -0.00078267
         3         5         4     -0.00137080
         3         5         5      0.00000000
         3         5         6      0.00174909
         3         5         7     -0.00114343
         3         5         8      0.00000000
         3         5         9      0.00021811
         3         5        10     -0.00000000
         3         5        11      0.00033740
         3         5        12     -0.00100763

 Doubles amplitudes (print threshold =  0.000E+00):

         I         J         SYM. A    SYM. B    A         B      T(IJ, AB)

         1         1         1         1         1         1     -0.00008833
         1         1         1         1         1         2      0.00017977
         1         1         1         1         1         3     -0.00004751
         1         1         1         1         1         4      0.00000000
         1         1         1         1         1         5     -0.00017582
         1         1         1         1         1         6     -0.00036699
         1         1         1         1         1         7     -0.00000000
         1         1         1         1         1         8      0.00016380
         1         1         1         1         1         9     -0.00000000
         1         1         1         1         1        10      0.00005860
         1         1         1         1         1        11      0.00067048
         1         1         1         1         2         1      0.00017977
         1         1         1         1         2         2     -0.00038342
         1         1         1         1         2         3      0.00026903
         1         1         1         1         2         4      0.00000000
         1         1         1         1         2         5      0.00029302
         1         1         1         1         2         6      0.00056120
         1         1         1         1         2         7     -0.00000000
         1         1         1         1         2         8      0.00006008
         1         1         1         1         2         9     -0.00000000
         1         1         1         1         2        10     -0.00001238
         1         1         1         1         2        11     -0.00182433
         1         1         1         1         3         1     -0.00004751
         1         1         1         1         3         2      0.00026903
         1         1         1         1         3         3     -0.00086262
         1         1         1         1         3         4     -0.00000000
         1         1         1         1         3         5      0.00006635
         1         1         1         1         3         6      0.00028482
         1         1         1         1         3         7      0.00000000
         1         1         1         1         3         8     -0.00151361
         1         1         1         1         3         9     -0.00000000
         1         1         1         1         3        10     -0.00035376
         1         1         1         1         3        11      0.00303645
         1         1         1         1         4         1      0.00000000
         1         1         1         1         4         2      0.00000000
         1         1         1         1         4         3     -0.00000000
         1         1         1         1         4         4      0.00000935
         1         1         1         1         4         5      0.00000000
         1         1         1         1         4         6      0.00000000
         1         1         1         1         4         7      0.00000314
         1         1         1         1         4         8     -0.00000000
         1         1         1         1         4         9     -0.00000617
         1         1         1         1         4        10     -0.00000000
         1         1         1         1         4        11      0.00000000
         1         1         1         1         5         1     -0.00017582
         1         1         1         1         5         2      0.00029302
         1         1         1         1         5         3      0.00006635
         1         1         1         1         5         4      0.00000000
         1         1         1         1         5         5     -0.00030594
         1         1         1         1         5         6     -0.00062312
         1         1         1         1         5         7     -0.00000000
         1         1         1         1         5         8      0.00049081
         1         1         1         1         5         9     -0.00000000
         1         1         1         1         5        10      0.00012874
         1         1         1         1         5        11      0.00058383
         1         1         1         1         6         1     -0.00036699
         1         1         1         1         6         2      0.00056120
         1         1         1         1         6         3      0.00028482
         1         1         1         1         6         4      0.00000000
         1         1         1         1         6         5     -0.00062312
         1         1         1         1         6         6     -0.00126554
         1         1         1         1         6         7     -0.00000000
         1         1         1         1         6         8      0.00127118
         1         1         1         1         6         9     -0.00000000
         1         1         1         1         6        10      0.00034350
         1         1         1         1         6        11      0.00055087
         1         1         1         1         7         1     -0.00000000
         1         1         1         1         7         2     -0.00000000
         1         1         1         1         7         3      0.00000000
         1         1         1         1         7         4      0.00000314
         1         1         1         1         7         5     -0.00000000
         1         1         1         1         7         6     -0.00000000
         1         1         1         1         7         7      0.00000617
         1         1         1         1         7         8      0.00000000
         1         1         1         1         7         9     -0.00000659
         1         1         1         1         7        10      0.00000000
         1         1         1         1         7        11     -0.00000000
         1         1         1         1         8         1      0.00016380
         1         1         1         1         8         2      0.00006008
         1         1         1         1         8         3     -0.00151361
         1         1         1         1         8         4     -0.00000000
         1         1         1         1         8         5      0.00049081
         1         1         1         1         8         6      0.00127118
         1         1         1         1         8         7      0.00000000
         1         1         1         1         8         8     -0.00324907
         1         1         1         1         8         9     -0.00000000
         1         1         1         1         8        10     -0.00079090
         1         1         1         1         8        11      0.00458024
         1         1         1         1         9         1     -0.00000000
         1         1         1         1         9         2     -0.00000000
         1         1         1         1         9         3     -0.00000000
         1         1         1         1         9         4     -0.00000617
         1         1         1         1         9         5     -0.00000000
         1         1         1         1         9         6     -0.00000000
         1         1         1         1         9         7     -0.00000659
         1         1         1         1         9         8     -0.00000000
         1         1         1         1         9         9     -0.00004875
         1         1         1         1         9        10      0.00000000
         1         1         1         1         9        11     -0.00000000
         1         1         1         1        10         1      0.00005860
         1         1         1         1        10         2     -0.00001238
         1         1         1         1        10         3     -0.00035376
         1         1         1         1        10         4     -0.00000000
         1         1         1         1        10         5      0.00012874
         1         1         1         1        10         6      0.00034350
         1         1         1         1        10         7      0.00000000
         1         1         1         1        10         8     -0.00079090
         1         1         1         1        10         9      0.00000000
         1         1         1         1        10        10     -0.00027402
         1         1         1         1        10        11      0.00101081
         1         1         1         1        11         1      0.00067048
         1         1         1         1        11         2     -0.00182433
         1         1         1         1        11         3      0.00303645
         1         1         1         1        11         4      0.00000000
         1         1         1         1        11         5      0.00058383
         1         1         1         1        11         6      0.00055087
         1         1         1         1        11         7     -0.00000000
         1         1         1         1        11         8      0.00458024
         1         1         1         1        11         9     -0.00000000
         1         1         1         1        11        10      0.00101081
         1         1         1         1        11        11     -0.01573165
         1         1         2         2         1         1      0.00003083
         1         1         2         2         1         2     -0.00003078
         1         1         2         2         1         3      0.00000987
         1         1         2         2         1         4     -0.00040541
         1         1         2         2         1         5      0.00000000
         1         1         2         2         1         6      0.00014748
         1         1         2         2         1         7      0.00015533
         1         1         2         2         2         1     -0.00003078
         1         1         2         2         2         2     -0.00010587
         1         1         2         2         2         3     -0.00000833
         1         1         2         2         2         4     -0.00061330
         1         1         2         2         2         5      0.00000000
         1         1         2         2         2         6      0.00021222
         1         1         2         2         2         7      0.00023166
         1         1         2         2         3         1      0.00000987
         1         1         2         2         3         2     -0.00000833
         1         1         2         2         3         3      0.00000877
         1         1         2         2         3         4     -0.00012393
         1         1         2         2         3         5      0.00000000
         1         1         2         2         3         6      0.00003958
         1         1         2         2         3         7      0.00005461
         1         1         2         2         4         1     -0.00040541
         1         1         2         2         4         2     -0.00061330
         1         1         2         2         4         3     -0.00012393
         1         1         2         2         4         4     -0.00208135
         1         1         2         2         4         5      0.00000000
         1         1         2         2         4         6      0.00068852
         1         1         2         2         4         7      0.00078204
         1         1         2         2         5         1      0.00000000
         1         1         2         2         5         2      0.00000000
         1         1         2         2         5         3      0.00000000
         1         1         2         2         5         4      0.00000000
         1         1         2         2         5         5      0.00000509
         1         1         2         2         5         6     -0.00000000
         1         1         2         2         5         7     -0.00000000
         1         1         2         2         6         1      0.00014748
         1         1         2         2         6         2      0.00021222
         1         1         2         2         6         3      0.00003958
         1         1         2         2         6         4      0.00068852
         1         1         2         2         6         5     -0.00000000
         1         1         2         2         6         6     -0.00026337
         1         1         2         2         6         7     -0.00023181
         1         1         2         2         7         1      0.00015533
         1         1         2         2         7         2      0.00023166
         1         1         2         2         7         3      0.00005461
         1         1         2         2         7         4      0.00078204
         1         1         2         2         7         5     -0.00000000
         1         1         2         2         7         6     -0.00023181
         1         1         2         2         7         7     -0.00030703
         1         1         3         3         1         1      0.00003083
         1         1         3         3         1         2     -0.00003078
         1         1         3         3         1         3      0.00000987
         1         1         3         3         1         4     -0.00040541
         1         1         3         3         1         5     -0.00000000
         1         1         3         3         1         6      0.00014748
         1         1         3         3         1         7      0.00015533
         1         1         3         3         2         1     -0.00003078
         1         1         3         3         2         2     -0.00010587
         1         1         3         3         2         3     -0.00000833
         1         1         3         3         2         4     -0.00061330
         1         1         3         3         2         5     -0.00000000
         1         1         3         3         2         6      0.00021222
         1         1         3         3         2         7      0.00023166
         1         1         3         3         3         1      0.00000987
         1         1         3         3         3         2     -0.00000833
         1         1         3         3         3         3      0.00000877
         1         1         3         3         3         4     -0.00012393
         1         1         3         3         3         5     -0.00000000
         1         1         3         3         3         6      0.00003958
         1         1         3         3         3         7      0.00005461
         1         1         3         3         4         1     -0.00040541
         1         1         3         3         4         2     -0.00061330
         1         1         3         3         4         3     -0.00012393
         1         1         3         3         4         4     -0.00208135
         1         1         3         3         4         5     -0.00000000
         1         1         3         3         4         6      0.00068852
         1         1         3         3         4         7      0.00078204
         1         1         3         3         5         1     -0.00000000
         1         1         3         3         5         2     -0.00000000
         1         1         3         3         5         3     -0.00000000
         1         1         3         3         5         4     -0.00000000
         1         1         3         3         5         5      0.00000509
         1         1         3         3         5         6      0.00000000
         1         1         3         3         5         7      0.00000000
         1         1         3         3         6         1      0.00014748
         1         1         3         3         6         2      0.00021222
         1         1         3         3         6         3      0.00003958
         1         1         3         3         6         4      0.00068852
         1         1         3         3         6         5      0.00000000
         1         1         3         3         6         6     -0.00026337
         1         1         3         3         6         7     -0.00023181
         1         1         3         3         7         1      0.00015533
         1         1         3         3         7         2      0.00023166
         1         1         3         3         7         3      0.00005461
         1         1         3         3         7         4      0.00078204
         1         1         3         3         7         5      0.00000000
         1         1         3         3         7         6     -0.00023181
         1         1         3         3         7         7     -0.00030703
         1         1         4         4         1         1      0.00000935
         1         1         4         4         1         2      0.00000314
         1         1         4         4         1         3     -0.00000617
         1         1         4         4         2         1      0.00000314
         1         1         4         4         2         2      0.00000617
         1         1         4         4         2         3     -0.00000659
         1         1         4         4         3         1     -0.00000617
         1         1         4         4         3         2     -0.00000659
         1         1         4         4         3         3     -0.00004875
         1         1         5         5         1         1     -0.00036621
         1         1         5         5         1         2      0.00041692
         1         1         5         5         1         3     -0.00033721
         1         1         5         5         1         4     -0.00055292
         1         1         5         5         1         5      0.00000000
         1         1         5         5         1         6      0.00093067
         1         1         5         5         1         7     -0.00045577
         1         1         5         5         1         8      0.00000000
         1         1         5         5         1         9      0.00006733
         1         1         5         5         1        10      0.00000000
         1         1         5         5         1        11      0.00008197
         1         1         5         5         1        12     -0.00228750
         1         1         5         5         2         1      0.00041692
         1         1         5         5         2         2     -0.00046021
         1         1         5         5         2         3      0.00035951
         1         1         5         5         2         4      0.00060557
         1         1         5         5         2         5     -0.00000000
         1         1         5         5         2         6     -0.00097609
         1         1         5         5         2         7      0.00052364
         1         1         5         5         2         8      0.00000000
         1         1         5         5         2         9     -0.00009621
         1         1         5         5         2        10     -0.00000000
         1         1         5         5         2        11     -0.00013191
         1         1         5         5         2        12      0.00244198
         1         1         5         5         3         1     -0.00033721
         1         1         5         5         3         2      0.00035951
         1         1         5         5         3         3     -0.00028395
         1         1         5         5         3         4     -0.00043244
         1         1         5         5         3         5     -0.00000000
         1         1         5         5         3         6      0.00076433
         1         1         5         5         3         7     -0.00025960
         1         1         5         5         3         8     -0.00000000
         1         1         5         5         3         9     -0.00001963
         1         1         5         5         3        10     -0.00000000
         1         1         5         5         3        11     -0.00007737
         1         1         5         5         3        12     -0.00177821
         1         1         5         5         4         1     -0.00055292
         1         1         5         5         4         2      0.00060557
         1         1         5         5         4         3     -0.00043244
         1         1         5         5         4         4     -0.00083529
         1         1         5         5         4         5     -0.00000000
         1         1         5         5         4         6      0.00114513
         1         1         5         5         4         7     -0.00094588
         1         1         5         5         4         8      0.00000000
         1         1         5         5         4         9      0.00030722
         1         1         5         5         4        10      0.00000000
         1         1         5         5         4        11      0.00053463
         1         1         5         5         4        12     -0.00325235
         1         1         5         5         5         1      0.00000000
         1         1         5         5         5         2     -0.00000000
         1         1         5         5         5         3     -0.00000000
         1         1         5         5         5         4     -0.00000000
         1         1         5         5         5         5      0.00000454
         1         1         5         5         5         6     -0.00000000
         1         1         5         5         5         7      0.00000000
         1         1         5         5         5         8      0.00000168
         1         1         5         5         5         9     -0.00000000
         1         1         5         5         5        10     -0.00000346
         1         1         5         5         5        11      0.00000000
         1         1         5         5         5        12      0.00000000
         1         1         5         5         6         1      0.00093067
         1         1         5         5         6         2     -0.00097609
         1         1         5         5         6         3      0.00076433
         1         1         5         5         6         4      0.00114513
         1         1         5         5         6         5     -0.00000000
         1         1         5         5         6         6     -0.00202532
         1         1         5         5         6         7      0.00063393
         1         1         5         5         6         8     -0.00000000
         1         1         5         5         6         9      0.00009414
         1         1         5         5         6        10     -0.00000000
         1         1         5         5         6        11      0.00029420
         1         1         5         5         6        12      0.00462950
         1         1         5         5         7         1     -0.00045577
         1         1         5         5         7         2      0.00052364
         1         1         5         5         7         3     -0.00025960
         1         1         5         5         7         4     -0.00094588
         1         1         5         5         7         5      0.00000000
         1         1         5         5         7         6      0.00063393
         1         1         5         5         7         7     -0.00188274
         1         1         5         5         7         8     -0.00000000
         1         1         5         5         7         9      0.00099895
         1         1         5         5         7        10      0.00000000
         1         1         5         5         7        11      0.00191110
         1         1         5         5         7        12     -0.00333272
         1         1         5         5         8         1      0.00000000
         1         1         5         5         8         2      0.00000000
         1         1         5         5         8         3     -0.00000000
         1         1         5         5         8         4      0.00000000
         1         1         5         5         8         5      0.00000168
         1         1         5         5         8         6     -0.00000000
         1         1         5         5         8         7     -0.00000000
         1         1         5         5         8         8     -0.00000535
         1         1         5         5         8         9     -0.00000000
         1         1         5         5         8        10      0.00002025
         1         1         5         5         8        11      0.00000000
         1         1         5         5         8        12      0.00000000
         1         1         5         5         9         1      0.00006733
         1         1         5         5         9         2     -0.00009621
         1         1         5         5         9         3     -0.00001963
         1         1         5         5         9         4      0.00030722
         1         1         5         5         9         5     -0.00000000
         1         1         5         5         9         6      0.00009414
         1         1         5         5         9         7      0.00099895
         1         1         5         5         9         8     -0.00000000
         1         1         5         5         9         9     -0.00063283
         1         1         5         5         9        10      0.00000000
         1         1         5         5         9        11     -0.00123306
         1         1         5         5         9        12      0.00090639
         1         1         5         5        10         1      0.00000000
         1         1         5         5        10         2     -0.00000000
         1         1         5         5        10         3     -0.00000000
         1         1         5         5        10         4      0.00000000
         1         1         5         5        10         5     -0.00000346
         1         1         5         5        10         6     -0.00000000
         1         1         5         5        10         7      0.00000000
         1         1         5         5        10         8      0.00002025
         1         1         5         5        10         9      0.00000000
         1         1         5         5        10        10     -0.00004357
         1         1         5         5        10        11      0.00000000
         1         1         5         5        10        12      0.00000000
         1         1         5         5        11         1      0.00008197
         1         1         5         5        11         2     -0.00013191
         1         1         5         5        11         3     -0.00007737
         1         1         5         5        11         4      0.00053463
         1         1         5         5        11         5      0.00000000
         1         1         5         5        11         6      0.00029420
         1         1         5         5        11         7      0.00191110
         1         1         5         5        11         8      0.00000000
         1         1         5         5        11         9     -0.00123306
         1         1         5         5        11        10      0.00000000
         1         1         5         5        11        11     -0.00256653
         1         1         5         5        11        12      0.00153528
         1         1         5         5        12         1     -0.00228750
         1         1         5         5        12         2      0.00244198
         1         1         5         5        12         3     -0.00177821
         1         1         5         5        12         4     -0.00325235
         1         1         5         5        12         5      0.00000000
         1         1         5         5        12         6      0.00462950
         1         1         5         5        12         7     -0.00333272
         1         1         5         5        12         8      0.00000000
         1         1         5         5        12         9      0.00090639
         1         1         5         5        12        10      0.00000000
         1         1         5         5        12        11      0.00153528
         1         1         5         5        12        12     -0.01540550
         1         1         6         6         1         1     -0.00002004
         1         1         6         6         1         2     -0.00006196
         1         1         6         6         1         3     -0.00001561
         1         1         6         6         1         4     -0.00020831
         1         1         6         6         1         5      0.00000000
         1         1         6         6         1         6     -0.00008774
         1         1         6         6         1         7     -0.00009118
         1         1         6         6         2         1     -0.00006196
         1         1         6         6         2         2     -0.00018042
         1         1         6         6         2         3     -0.00004573
         1         1         6         6         2         4     -0.00060107
         1         1         6         6         2         5      0.00000000
         1         1         6         6         2         6     -0.00025149
         1         1         6         6         2         7     -0.00026624
         1         1         6         6         3         1     -0.00001561
         1         1         6         6         3         2     -0.00004573
         1         1         6         6         3         3     -0.00000824
         1         1         6         6         3         4     -0.00015051
         1         1         6         6         3         5      0.00000000
         1         1         6         6         3         6     -0.00006305
         1         1         6         6         3         7     -0.00007066
         1         1         6         6         4         1     -0.00020831
         1         1         6         6         4         2     -0.00060107
         1         1         6         6         4         3     -0.00015051
         1         1         6         6         4         4     -0.00197612
         1         1         6         6         4         5     -0.00000000
         1         1         6         6         4         6     -0.00082747
         1         1         6         6         4         7     -0.00089774
         1         1         6         6         5         1      0.00000000
         1         1         6         6         5         2      0.00000000
         1         1         6         6         5         3      0.00000000
         1         1         6         6         5         4     -0.00000000
         1         1         6         6         5         5      0.00000372
         1         1         6         6         5         6     -0.00000000
         1         1         6         6         5         7     -0.00000000
         1         1         6         6         6         1     -0.00008774
         1         1         6         6         6         2     -0.00025149
         1         1         6         6         6         3     -0.00006305
         1         1         6         6         6         4     -0.00082747
         1         1         6         6         6         5     -0.00000000
         1         1         6         6         6         6     -0.00035266
         1         1         6         6         6         7     -0.00035347
         1         1         6         6         7         1     -0.00009118
         1         1         6         6         7         2     -0.00026624
         1         1         6         6         7         3     -0.00007066
         1         1         6         6         7         4     -0.00089774
         1         1         6         6         7         5     -0.00000000
         1         1         6         6         7         6     -0.00035347
         1         1         6         6         7         7     -0.00046723
         1         1         7         7         1         1     -0.00002004
         1         1         7         7         1         2     -0.00006196
         1         1         7         7         1         3     -0.00001561
         1         1         7         7         1         4     -0.00020831
         1         1         7         7         1         5     -0.00000000
         1         1         7         7         1         6     -0.00008774
         1         1         7         7         1         7     -0.00009118
         1         1         7         7         2         1     -0.00006196
         1         1         7         7         2         2     -0.00018042
         1         1         7         7         2         3     -0.00004573
         1         1         7         7         2         4     -0.00060107
         1         1         7         7         2         5     -0.00000000
         1         1         7         7         2         6     -0.00025149
         1         1         7         7         2         7     -0.00026624
         1         1         7         7         3         1     -0.00001561
         1         1         7         7         3         2     -0.00004573
         1         1         7         7         3         3     -0.00000824
         1         1         7         7         3         4     -0.00015051
         1         1         7         7         3         5     -0.00000000
         1         1         7         7         3         6     -0.00006305
         1         1         7         7         3         7     -0.00007066
         1         1         7         7         4         1     -0.00020831
         1         1         7         7         4         2     -0.00060107
         1         1         7         7         4         3     -0.00015051
         1         1         7         7         4         4     -0.00197612
         1         1         7         7         4         5      0.00000000
         1         1         7         7         4         6     -0.00082747
         1         1         7         7         4         7     -0.00089774
         1         1         7         7         5         1     -0.00000000
         1         1         7         7         5         2     -0.00000000
         1         1         7         7         5         3     -0.00000000
         1         1         7         7         5         4      0.00000000
         1         1         7         7         5         5      0.00000372
         1         1         7         7         5         6      0.00000000
         1         1         7         7         5         7      0.00000000
         1         1         7         7         6         1     -0.00008774
         1         1         7         7         6         2     -0.00025149
         1         1         7         7         6         3     -0.00006305
         1         1         7         7         6         4     -0.00082747
         1         1         7         7         6         5      0.00000000
         1         1         7         7         6         6     -0.00035266
         1         1         7         7         6         7     -0.00035347
         1         1         7         7         7         1     -0.00009118
         1         1         7         7         7         2     -0.00026624
         1         1         7         7         7         3     -0.00007066
         1         1         7         7         7         4     -0.00089774
         1         1         7         7         7         5      0.00000000
         1         1         7         7         7         6     -0.00035347
         1         1         7         7         7         7     -0.00046723
         1         1         8         8         1         1      0.00000454
         1         1         8         8         1         2      0.00000168
         1         1         8         8         1         3     -0.00000346
         1         1         8         8         2         1      0.00000168
         1         1         8         8         2         2     -0.00000535
         1         1         8         8         2         3      0.00002025
         1         1         8         8         3         1     -0.00000346
         1         1         8         8         3         2      0.00002025
         1         1         8         8         3         3     -0.00004357
         2         1         1         1         1         1     -0.00042523
         2         1         1         1         1         2      0.00060974
         2         1         1         1         1         3      0.00057288
         2         1         1         1         1         4     -0.00000000
         2         1         1         1         1         5     -0.00072867
         2         1         1         1         1         6     -0.00108645
         2         1         1         1         1         7      0.00000000
         2         1         1         1         1         8      0.00100399
         2         1         1         1         1         9      0.00000000
         2         1         1         1         1        10      0.00014802
         2         1         1         1         1        11     -0.00003199
         2         1         1         1         2         1      0.00061411
         2         1         1         1         2         2     -0.00085582
         2         1         1         1         2         3     -0.00094841
         2         1         1         1         2         4     -0.00000000
         2         1         1         1         2         5      0.00109039
         2         1         1         1         2         6      0.00162684
         2         1         1         1         2         7     -0.00000000
         2         1         1         1         2         8     -0.00164552
         2         1         1         1         2         9      0.00000000
         2         1         1         1         2        10     -0.00015249
         2         1         1         1         2        11      0.00024326
         2         1         1         1         3         1      0.00036336
         2         1         1         1         3         2     -0.00063399
         2         1         1         1         3         3      0.00001792
         2         1         1         1         3         4     -0.00000000
         2         1         1         1         3         5      0.00053812
         2         1         1         1         3         6      0.00081216
         2         1         1         1         3         7      0.00000000
         2         1         1         1         3         8     -0.00023956
         2         1         1         1         3         9      0.00000000
         2         1         1         1         3        10     -0.00009381
         2         1         1         1         3        11     -0.00081453
         2         1         1         1         4         1     -0.00000000
         2         1         1         1         4         2     -0.00000000
         2         1         1         1         4         3     -0.00000000
         2         1         1         1         4         4     -0.00004794
         2         1         1         1         4         5      0.00000000
         2         1         1         1         4         6      0.00000000
         2         1         1         1         4         7     -0.00004787
         2         1         1         1         4         8     -0.00000000
         2         1         1         1         4         9     -0.00020643
         2         1         1         1         4        10     -0.00000000
         2         1         1         1         4        11     -0.00000000
         2         1         1         1         5         1     -0.00055482
         2         1         1         1         5         2      0.00081629
         2         1         1         1         5         3      0.00069949
         2         1         1         1         5         4      0.00000000
         2         1         1         1         5         5     -0.00099507
         2         1         1         1         5         6     -0.00148144
         2         1         1         1         5         7     -0.00000000
         2         1         1         1         5         8      0.00138132
         2         1         1         1         5         9     -0.00000000
         2         1         1         1         5        10     -0.00001558
         2         1         1         1         5        11      0.00003316
         2         1         1         1         6         1     -0.00034654
         2         1         1         1         6         2      0.00049559
         2         1         1         1         6         3      0.00055510
         2         1         1         1         6         4      0.00000000
         2         1         1         1         6         5     -0.00067142
         2         1         1         1         6         6     -0.00111059
         2         1         1         1         6         7     -0.00000000
         2         1         1         1         6         8      0.00109735
         2         1         1         1         6         9     -0.00000000
         2         1         1         1         6        10      0.00004741
         2         1         1         1         6        11     -0.00001052
         2         1         1         1         7         1     -0.00000000
         2         1         1         1         7         2     -0.00000000
         2         1         1         1         7         3      0.00000000
         2         1         1         1         7         4     -0.00003472
         2         1         1         1         7         5     -0.00000000
         2         1         1         1         7         6     -0.00000000
         2         1         1         1         7         7     -0.00007598
         2         1         1         1         7         8      0.00000000
         2         1         1         1         7         9     -0.00013847
         2         1         1         1         7        10      0.00000000
         2         1         1         1         7        11      0.00000000
         2         1         1         1         8         1      0.00010412
         2         1         1         1         8         2     -0.00027026
         2         1         1         1         8         3      0.00034792
         2         1         1         1         8         4     -0.00000000
         2         1         1         1         8         5      0.00013438
         2         1         1         1         8         6      0.00017678
         2         1         1         1         8         7      0.00000000
         2         1         1         1         8         8      0.00033955
         2         1         1         1         8         9      0.00000000
         2         1         1         1         8        10      0.00010159
         2         1         1         1         8        11     -0.00102856
         2         1         1         1         9         1      0.00000000
         2         1         1         1         9         2      0.00000000
         2         1         1         1         9         3      0.00000000
         2         1         1         1         9         4     -0.00005919
         2         1         1         1         9         5     -0.00000000
         2         1         1         1         9         6     -0.00000000
         2         1         1         1         9         7     -0.00005983
         2         1         1         1         9         8      0.00000000
         2         1         1         1         9         9     -0.00034474
         2         1         1         1         9        10      0.00000000
         2         1         1         1         9        11      0.00000000
         2         1         1         1        10         1     -0.00028631
         2         1         1         1        10         2      0.00043853
         2         1         1         1        10         3      0.00032728
         2         1         1         1        10         4     -0.00000000
         2         1         1         1        10         5     -0.00054538
         2         1         1         1        10         6     -0.00072505
         2         1         1         1        10         7      0.00000000
         2         1         1         1        10         8      0.00071081
         2         1         1         1        10         9      0.00000000
         2         1         1         1        10        10     -0.00036566
         2         1         1         1        10        11     -0.00016686
         2         1         1         1        11         1     -0.00019637
         2         1         1         1        11         2      0.00056730
         2         1         1         1        11         3     -0.00106775
         2         1         1         1        11         4     -0.00000000
         2         1         1         1        11         5     -0.00010873
         2         1         1         1        11         6      0.00006421
         2         1         1         1        11         7      0.00000000
         2         1         1         1        11         8     -0.00162142
         2         1         1         1        11         9      0.00000000
         2         1         1         1        11        10     -0.00041030
         2         1         1         1        11        11      0.00332082
         2         1         2         2         1         1     -0.00049698
         2         1         2         2         1         2     -0.00074195
         2         1         2         2         1         3     -0.00018195
         2         1         2         2         1         4     -0.00146960
         2         1         2         2         1         5      0.00000000
         2         1         2         2         1         6      0.00026716
         2         1         2         2         1         7      0.00048059
         2         1         2         2         2         1     -0.00068286
         2         1         2         2         2         2     -0.00103574
         2         1         2         2         2         3     -0.00024503
         2         1         2         2         2         4     -0.00219106
         2         1         2         2         2         5      0.00000000
         2         1         2         2         2         6      0.00040444
         2         1         2         2         2         7      0.00074317
         2         1         2         2         3         1     -0.00024262
         2         1         2         2         3         2     -0.00034639
         2         1         2         2         3         3     -0.00013930
         2         1         2         2         3         4     -0.00063309
         2         1         2         2         3         5      0.00000000
         2         1         2         2         3         6     -0.00006694
         2         1         2         2         3         7      0.00030431
         2         1         2         2         4         1     -0.00046090
         2         1         2         2         4         2     -0.00075435
         2         1         2         2         4         3     -0.00015789
         2         1         2         2         4         4     -0.00196326
         2         1         2         2         4         5      0.00000000
         2         1         2         2         4         6      0.00039642
         2         1         2         2         4         7      0.00070376
         2         1         2         2         5         1      0.00000000
         2         1         2         2         5         2      0.00000000
         2         1         2         2         5         3      0.00000000
         2         1         2         2         5         4      0.00000000
         2         1         2         2         5         5     -0.00003234
         2         1         2         2         5         6     -0.00000000
         2         1         2         2         5         7     -0.00000000
         2         1         2         2         6         1     -0.00021604
         2         1         2         2         6         2     -0.00028399
         2         1         2         2         6         3     -0.00016189
         2         1         2         2         6         4     -0.00041201
         2         1         2         2         6         5     -0.00000000
         2         1         2         2         6         6     -0.00031946
         2         1         2         2         6         7      0.00028650
         2         1         2         2         7         1      0.00012872
         2         1         2         2         7         2      0.00021210
         2         1         2         2         7         3      0.00006299
         2         1         2         2         7         4      0.00056879
         2         1         2         2         7         5     -0.00000000
         2         1         2         2         7         6     -0.00005581
         2         1         2         2         7         7     -0.00028789
         2         1         3         3         1         1     -0.00049698
         2         1         3         3         1         2     -0.00074195
         2         1         3         3         1         3     -0.00018195
         2         1         3         3         1         4     -0.00146960
         2         1         3         3         1         5     -0.00000000
         2         1         3         3         1         6      0.00026716
         2         1         3         3         1         7      0.00048059
         2         1         3         3         2         1     -0.00068286
         2         1         3         3         2         2     -0.00103574
         2         1         3         3         2         3     -0.00024503
         2         1         3         3         2         4     -0.00219106
         2         1         3         3         2         5     -0.00000000
         2         1         3         3         2         6      0.00040444
         2         1         3         3         2         7      0.00074317
         2         1         3         3         3         1     -0.00024262
         2         1         3         3         3         2     -0.00034639
         2         1         3         3         3         3     -0.00013930
         2         1         3         3         3         4     -0.00063309
         2         1         3         3         3         5     -0.00000000
         2         1         3         3         3         6     -0.00006694
         2         1         3         3         3         7      0.00030431
         2         1         3         3         4         1     -0.00046090
         2         1         3         3         4         2     -0.00075435
         2         1         3         3         4         3     -0.00015789
         2         1         3         3         4         4     -0.00196326
         2         1         3         3         4         5     -0.00000000
         2         1         3         3         4         6      0.00039642
         2         1         3         3         4         7      0.00070376
         2         1         3         3         5         1     -0.00000000
         2         1         3         3         5         2     -0.00000000
         2         1         3         3         5         3     -0.00000000
         2         1         3         3         5         4     -0.00000000
         2         1         3         3         5         5     -0.00003234
         2         1         3         3         5         6      0.00000000
         2         1         3         3         5         7      0.00000000
         2         1         3         3         6         1     -0.00021604
         2         1         3         3         6         2     -0.00028399
         2         1         3         3         6         3     -0.00016189
         2         1         3         3         6         4     -0.00041201
         2         1         3         3         6         5      0.00000000
         2         1         3         3         6         6     -0.00031946
         2         1         3         3         6         7      0.00028650
         2         1         3         3         7         1      0.00012872
         2         1         3         3         7         2      0.00021210
         2         1         3         3         7         3      0.00006299
         2         1         3         3         7         4      0.00056879
         2         1         3         3         7         5      0.00000000
         2         1         3         3         7         6     -0.00005581
         2         1         3         3         7         7     -0.00028789
         2         1         4         4         1         1     -0.00004794
         2         1         4         4         1         2     -0.00004787
         2         1         4         4         1         3     -0.00020643
         2         1         4         4         2         1     -0.00003472
         2         1         4         4         2         2     -0.00007598
         2         1         4         4         2         3     -0.00013847
         2         1         4         4         3         1     -0.00005919
         2         1         4         4         3         2     -0.00005983
         2         1         4         4         3         3     -0.00034474
         2         1         5         5         1         1      0.00011905
         2         1         5         5         1         2     -0.00012928
         2         1         5         5         1         3     -0.00000059
         2         1         5         5         1         4      0.00035085
         2         1         5         5         1         5      0.00000000
         2         1         5         5         1         6      0.00005036
[...]
         3         2         5         1         2         5      0.00039879
         3         2         5         1         2         6      0.00033493
         3         2         5         1         2         7      0.00000000
         3         2         5         1         2         8      0.00037574
         3         2         5         1         2         9      0.00000000
         3         2         5         1         2        10      0.00023677
         3         2         5         1         2        11     -0.00098082
         3         2         5         1         3         1     -0.00036016
         3         2         5         1         3         2      0.00059721
         3         2         5         1         3         3     -0.00000416
         3         2         5         1         3         4     -0.00000000
         3         2         5         1         3         5     -0.00044426
         3         2         5         1         3         6     -0.00035908
         3         2         5         1         3         7      0.00000000
         3         2         5         1         3         8     -0.00021558
         3         2         5         1         3         9      0.00000000
         3         2         5         1         3        10     -0.00020752
         3         2         5         1         3        11      0.00065383
         3         2         5         1         4         1     -0.00004417
         3         2         5         1         4         2      0.00021635
         3         2         5         1         4         3     -0.00048646
         3         2         5         1         4         4     -0.00000000
         3         2         5         1         4         5     -0.00008262
         3         2         5         1         4         6     -0.00012057
         3         2         5         1         4         7      0.00000000
         3         2         5         1         4         8     -0.00047981
         3         2         5         1         4         9      0.00000000
         3         2         5         1         4        10     -0.00013525
         3         2         5         1         4        11      0.00116831
         3         2         5         1         5         1     -0.00000000
         3         2         5         1         5         2      0.00000000
         3         2         5         1         5         3     -0.00000000
         3         2         5         1         5         4     -0.00004000
         3         2         5         1         5         5      0.00000000
         3         2         5         1         5         6      0.00000000
         3         2         5         1         5         7     -0.00001875
         3         2         5         1         5         8     -0.00000000
         3         2         5         1         5         9     -0.00004817
         3         2         5         1         5        10      0.00000000
         3         2         5         1         5        11     -0.00000000
         3         2         5         1         6         1      0.00083569
         3         2         5         1         6         2     -0.00136587
         3         2         5         1         6         3     -0.00007843
         3         2         5         1         6         4      0.00000000
         3         2         5         1         6         5      0.00104672
         3         2         5         1         6         6      0.00085341
         3         2         5         1         6         7     -0.00000000
         3         2         5         1         6         8      0.00042271
         3         2         5         1         6         9     -0.00000000
         3         2         5         1         6        10      0.00046884
         3         2         5         1         6        11     -0.00152574
         3         2         5         1         7         1      0.00087163
         3         2         5         1         7         2     -0.00114410
         3         2         5         1         7         3     -0.00113304
         3         2         5         1         7         4     -0.00000000
         3         2         5         1         7         5      0.00110412
         3         2         5         1         7         6      0.00075074
         3         2         5         1         7         7      0.00000000
         3         2         5         1         7         8     -0.00058410
         3         2         5         1         7         9      0.00000000
         3         2         5         1         7        10      0.00032088
         3         2         5         1         7        11      0.00101475
         3         2         5         1         8         1     -0.00000000
         3         2         5         1         8         2      0.00000000
         3         2         5         1         8         3     -0.00000000
         3         2         5         1         8         4      0.00007183
         3         2         5         1         8         5      0.00000000
         3         2         5         1         8         6      0.00000000
         3         2         5         1         8         7      0.00001728
         3         2         5         1         8         8     -0.00000000
         3         2         5         1         8         9      0.00012983
         3         2         5         1         8        10     -0.00000000
         3         2         5         1         8        11     -0.00000000
         3         2         5         1         9         1     -0.00049855
         3         2         5         1         9         2      0.00068856
         3         2         5         1         9         3      0.00051555
         3         2         5         1         9         4      0.00000000
         3         2         5         1         9         5     -0.00061607
         3         2         5         1         9         6     -0.00049279
         3         2         5         1         9         7      0.00000000
         3         2         5         1         9         8      0.00017090
         3         2         5         1         9         9      0.00000000
         3         2         5         1         9        10     -0.00016178
         3         2         5         1         9        11     -0.00021471
         3         2         5         1        10         1     -0.00000000
         3         2         5         1        10         2      0.00000000
         3         2         5         1        10         3     -0.00000000
         3         2         5         1        10         4     -0.00019948
         3         2         5         1        10         5      0.00000000
         3         2         5         1        10         6     -0.00000000
         3         2         5         1        10         7     -0.00014895
         3         2         5         1        10         8      0.00000000
         3         2         5         1        10         9     -0.00033152
         3         2         5         1        10        10      0.00000000
         3         2         5         1        10        11      0.00000000
         3         2         5         1        11         1     -0.00117101
         3         2         5         1        11         2      0.00177713
         3         2         5         1        11         3      0.00103321
         3         2         5         1        11         4      0.00000000
         3         2         5         1        11         5     -0.00178794
         3         2         5         1        11         6     -0.00130041
         3         2         5         1        11         7      0.00000000
         3         2         5         1        11         8      0.00043426
         3         2         5         1        11         9     -0.00000000
         3         2         5         1        11        10     -0.00104194
         3         2         5         1        11        11     -0.00034070
         3         2         5         1        12         1     -0.00029334
         3         2         5         1        12         2      0.00062976
         3         2         5         1        12         3     -0.00058285
         3         2         5         1        12         4     -0.00000000
         3         2         5         1        12         5     -0.00033505
         3         2         5         1        12         6     -0.00028678
         3         2         5         1        12         7      0.00000000
         3         2         5         1        12         8     -0.00095878
         3         2         5         1        12         9      0.00000000
         3         2         5         1        12        10     -0.00032766
         3         2         5         1        12        11      0.00333054
         3         2         6         2         1         1     -0.00018113
         3         2         6         2         1         2     -0.00027011
         3         2         6         2         1         3     -0.00006511
         3         2         6         2         1         4     -0.00023084
         3         2         6         2         1         5      0.00000000
         3         2         6         2         1         6     -0.00002500
         3         2         6         2         1         7      0.00006094
         3         2         6         2         2         1     -0.00060276
         3         2         6         2         2         2     -0.00088970
         3         2         6         2         2         3     -0.00022876
         3         2         6         2         2         4     -0.00074788
         3         2         6         2         2         5     -0.00000000
         3         2         6         2         2         6     -0.00011168
         3         2         6         2         2         7      0.00020226
         3         2         6         2         3         1     -0.00016044
         3         2         6         2         3         2     -0.00023697
         3         2         6         2         3         3     -0.00008733
         3         2         6         2         3         4     -0.00019587
         3         2         6         2         3         5     -0.00000000
         3         2         6         2         3         6     -0.00006514
         3         2         6         2         3         7      0.00006606
         3         2         6         2         4         1     -0.00140094
         3         2         6         2         4         2     -0.00210478
         3         2         6         2         4         3     -0.00057087
         3         2         6         2         4         4     -0.00190355
         3         2         6         2         4         5     -0.00000000
         3         2         6         2         4         6     -0.00029003
         3         2         6         2         4         7      0.00055476
         3         2         6         2         5         1     -0.00000000
         3         2         6         2         5         2     -0.00000000
         3         2         6         2         5         3     -0.00000000
         3         2         6         2         5         4     -0.00000000
         3         2         6         2         5         5     -0.00003428
         3         2         6         2         5         6      0.00000000
         3         2         6         2         5         7      0.00000000
         3         2         6         2         6         1     -0.00043946
         3         2         6         2         6         2     -0.00065886
         3         2         6         2         6         3     -0.00008985
         3         2         6         2         6         4     -0.00062594
         3         2         6         2         6         5     -0.00000000
         3         2         6         2         6         6      0.00004750
         3         2         6         2         6         7      0.00011958
         3         2         6         2         7         1     -0.00063408
         3         2         6         2         7         2     -0.00099089
         3         2         6         2         7         3     -0.00044755
         3         2         6         2         7         4     -0.00095387
         3         2         6         2         7         5     -0.00000000
         3         2         6         2         7         6     -0.00051316
         3         2         6         2         7         7      0.00037804
         3         2         7         3         1         1     -0.00018113
         3         2         7         3         1         2     -0.00027011
         3         2         7         3         1         3     -0.00006511
         3         2         7         3         1         4     -0.00023084
         3         2         7         3         1         5     -0.00000000
         3         2         7         3         1         6     -0.00002500
         3         2         7         3         1         7      0.00006094
         3         2         7         3         2         1     -0.00060276
         3         2         7         3         2         2     -0.00088970
         3         2         7         3         2         3     -0.00022876
         3         2         7         3         2         4     -0.00074788
         3         2         7         3         2         5      0.00000000
         3         2         7         3         2         6     -0.00011168
         3         2         7         3         2         7      0.00020226
         3         2         7         3         3         1     -0.00016044
         3         2         7         3         3         2     -0.00023697
         3         2         7         3         3         3     -0.00008733
         3         2         7         3         3         4     -0.00019587
         3         2         7         3         3         5      0.00000000
         3         2         7         3         3         6     -0.00006514
         3         2         7         3         3         7      0.00006606
         3         2         7         3         4         1     -0.00140094
         3         2         7         3         4         2     -0.00210478
         3         2         7         3         4         3     -0.00057087
         3         2         7         3         4         4     -0.00190355
         3         2         7         3         4         5      0.00000000
         3         2         7         3         4         6     -0.00029003
         3         2         7         3         4         7      0.00055476
         3         2         7         3         5         1      0.00000000
         3         2         7         3         5         2      0.00000000
         3         2         7         3         5         3      0.00000000
         3         2         7         3         5         4      0.00000000
         3         2         7         3         5         5     -0.00003428
         3         2         7         3         5         6     -0.00000000
         3         2         7         3         5         7     -0.00000000
         3         2         7         3         6         1     -0.00043946
         3         2         7         3         6         2     -0.00065886
         3         2         7         3         6         3     -0.00008985
         3         2         7         3         6         4     -0.00062594
         3         2         7         3         6         5      0.00000000
         3         2         7         3         6         6      0.00004750
         3         2         7         3         6         7      0.00011958
         3         2         7         3         7         1     -0.00063408
         3         2         7         3         7         2     -0.00099089
         3         2         7         3         7         3     -0.00044755
         3         2         7         3         7         4     -0.00095387
         3         2         7         3         7         5      0.00000000
         3         2         7         3         7         6     -0.00051316
         3         2         7         3         7         7      0.00037804
         3         2         8         4         1         1     -0.00004000
         3         2         8         4         1         2     -0.00001875
         3         2         8         4         1         3     -0.00004817
         3         2         8         4         2         1      0.00007183
         3         2         8         4         2         2      0.00001728
         3         2         8         4         2         3      0.00012983
         3         2         8         4         3         1     -0.00019948
         3         2         8         4         3         2     -0.00014895
         3         2         8         4         3         3     -0.00033152


 RESULTS
 =======

  Reference energy                    -14.871136112507

  Correlated core orbitals:             1.1       1.5
  Orbital energies:                    -2.4529   -2.4525

  CCSD core-core energy                -0.025706901895
  CCSD core-valence energy             -0.002464279463
  CCSD valence correlation energy      -0.031617060186

  CCSD singlet pair energy             -0.059156735950
  CCSD triplet pair energy             -0.000631503320
  CCSD correlation energy              -0.059788241544

 !CCSD total energy                   -14.930924354051

 Timing summary (sec):

 STEP                 CPU(USER)    SYS     CPU(TOT)    WALL
 CCSD iterations         0.21      0.03      0.24      0.24

 Program statistics:

 Available memory in ccsd:                39999164
 Min. memory needed in ccsd:                 14528
 Max. memory used in ccsd:                   15848
 Max. memory used in cckext:                 44671 (32 integral passes)



 **********************************************************************************************************************************
 DATASETS  * FILE   NREC   LENGTH (MB)   RECORD NAMES
              1      20       31.37       500      700      610      900      950      970     1000      129      960     1100   
                                          VAR     GEOM    BASINP   SYMINP    ZMAT    AOBASIS   BASIS     P2S    ABASIS      S 
                                         1400     1410     1200     1210     1080     1600     1650     1300     1700     1380   
                                           T        V       H0       H01     AOSYM     SMH    MOLCAS    ERIS     OPER     JKOP   

              3       5       14.79       500      610      700     1000     2100   
                                          VAR    BASINP    GEOM     BASIS     RHF  

 PROGRAMS   *        TOTAL      CCSD       INT   RESTART
 CPU TIMES  *         0.64      0.28      0.28      0.01
 REAL TIME  *         0.84 SEC
 DISK USED  *        51.14 MB
 **********************************************************************************************************************************
 Molecular orbitals read from record     2100.3  Type=RHF/CANONICAL (state 1.1)
 Occupation numbers read from record     2100.3  Type=RHF/RHF (state 1.1)
 Orbital energies read from record       2100.3  Type=RHF/CANONICAL (state 1.1)
 Redundancy group numbers read from rec  2100.3  Type=RHF/RHF (state 1.1)

 CCSD/cc-pVTZ energy=    -14.930924354051

            CCSD
    -14.93092435
 **********************************************************************************************************************************
 Molpro calculation terminated
