
 Primary working directories    : /scr/yuriaoto/job.022233/molpro.BmriJYBAFn
 Secondary working directories  : /scr/yuriaoto/job.022233/molpro.BmriJYBAFn
 Wavefunction directory         : /scr/yuriaoto/job.022233/
 Main file repository           : /scr/yuriaoto/job.022233/molpro.BmriJYBAFn/

 id        : yuriaoto

 Nodes             nprocs
 t-rex.ufabc.int.br    1

 Using customized tuning parameters: mindgm=8; mindgv=16; mindgc=1; mindgr=1; noblas=0; minvec=7
 default implementation of scratch files=df  


 Variables initialized (933), CPU time= 0.00 sec
 ***,
 memory,40,m
 gprint,orbital,basis,civector
 gthresh,thrprint=0,printci=0.0
 
 basis=6-31g
 
 geometry={H1
           O,H1,R
           H2,O,R,H1,A}
 
 R = 1.4 ANG
 A = 104.0
 
 {hf
 wf, 10, 1, 0}
 
 {cisd
 thresh,printci=0.0
 print,ref=1
 core,0
 wf,10,1,0;
 }
 
 {fci
 wf,10,1,0;
 core,0
 }
 Commands  initialized (760), CPU time= 0.01 sec, 617 directives.
 Default parameters read. Elapsed time= 0.04 sec

 Checking input...
 Passed
1


                                         ***  PROGRAM SYSTEM MOLPRO  ***
                                       Copyright, TTI GmbH Stuttgart, 2015
                                    Version 2019.2 linked Abr  7 2019 15:10:35


 **********************************************************************************************************************************
 LABEL *                                                                                 
  64 bit serial version                                                                  DATE: 28-Aug-19          TIME: 09:54:06  
 **********************************************************************************************************************************

 SHA1:             3a8a58c585c929645742fb5a1b7541a4ad1da699
 **********************************************************************************************************************************


 THRESHOLDS:

 ZERO    =  1.00D-12  ONEINT  =  1.00D-12  TWOINT  =  1.00D-11  PREFAC  =  1.00D-14  XXXXXX  =  1.00D-09  EORDER  =  1.00D-04
 ENERGY  =  0.00D+00  ETEST   =  0.00D+00  EDENS   =  0.00D+00  THRDEDEF=  1.00D-06  GRADIENT=  1.00D-02  STEP    =  1.00D-03
 ORBITAL =  1.00D-05  CIVEC   =  1.00D-05  COEFF   =  1.00D-04  PRINTCI =  0.00D+00  PUNCHCI =  9.90D+01  OPTGRAD =  3.00D-04
 OPTENERG=  1.00D-06  OPTSTEP =  3.00D-04  THRGRAD =  1.00D-10  COMPRESS=  1.00D-11  VARMIN  =  1.00D-07  VARMAX  =  1.00D-03
 THRDOUB =  0.00D+00  THRDIV  =  1.00D-05  THRRED  =  1.00D-07  THRPSP  =  1.00D+00  THRDC   =  1.00D-10  THRCS   =  1.00D-10
 THRNRM  =  1.00D-08  THREQ   =  0.00D+00  THRDE   =  1.00D+00  THRREF  =  1.00D-05  SPARFAC =  1.00D+00  THRDLP  =  1.00D-07
 THRDIA  =  1.00D-10  THRDLS  =  1.00D-07  THRGPS  =  0.00D+00  THRKEX  =  0.00D+00  THRDIS  =  2.00D-01  THRVAR  =  1.00D-10
 THRLOC  =  1.00D-06  THRGAP  =  1.00D-06  THRLOCT = -1.00D+00  THRGAPT = -1.00D+00  THRORB  =  1.00D-06  THRMLTP =  0.00D+00
 THRCPQCI=  1.00D-10  KEXTA   =  0.00D+00  THRCOARS=  0.00D+00  SYMTOL  =  1.00D-06  GRADTOL =  1.00D-06  THROVL  =  1.00D-08
 THRORTH =  1.00D-08  GRID    =  1.00D-06  GRIDMAX =  1.00D-03  DTMAX   =  0.00D+00  THROCCDE=  1.00D-01  THROCCDE=  1.00D-01
 THRPRINT=  0.00D+00


 Variable memory set to   40000000 words,  buffer space 

 SETTING BASIS          =    6-31G
 SETTING R              =         1.40000000  ANG                             
 SETTING A              =       104.00000000                                  


 Recomputing integrals since basis changed


 Using spherical harmonics

 Library entry H      S 6-31G                selected for orbital group  1
 Library entry O      S 6-31G                selected for orbital group  2
 Library entry O      P 6-31G                selected for orbital group  2


 PROGRAM * SEWARD (Integral evaluation for generally contracted gaussian basis sets)     Author: Roland Lindh, 1990

 Geometry written to block  1 of record 700

 Orientation using atomic masses  
 Molecule type: Asymmetric top,     Order of principal axis = 2
 Symmetry elements: X,Y
 Rotational constants:     133.5729699    379.9704336    205.9833673 GHz  (calculated with average atomic masses)

 Point group  C2v 



 ATOMIC COORDINATES

 NR  ATOM    CHARGE       X              Y              Z

   1  H1      1.00    0.000000000   -2.084774311    1.446543710
   2  H2      1.00    0.000000000    2.084774311    1.446543710
   3  O       8.00    0.000000000    0.000000000   -0.182260493


 BASIS DATA

   Nr Sym  Nuc  Type         Exponents   Contraction coefficients

    1.1 A1    1  1s          18.731137     0.033495
              2  1s           2.825394     0.234727
                              0.640122     0.813757
    2.1 A1    1  1s           0.161278     1.000000
              2  1s    
    3.1 A1    3  1s        5484.671700     0.001831
                            825.234950     0.013950
                            188.046960     0.068445
                             52.964500     0.232714
                             16.897570     0.470193
                              5.799635     0.358521
    4.1 A1    3  1s          15.539616    -0.110778
                              3.599934    -0.148026
                              1.013762     1.130767
    5.1 A1    3  1s           0.270006     1.000000
    6.1 A1    3  2pz         15.539616     0.070874
                              3.599934     0.339753
                              1.013762     0.727159
    7.1 A1    3  2pz          0.270006     1.000000
    1.2 B1    3  2px         15.539616     0.070874
                              3.599934     0.339753
                              1.013762     0.727159
    2.2 B1    3  2px          0.270006     1.000000
    1.3 B2    1  1s          18.731137     0.033495
              2 -1s           2.825394     0.234727
                              0.640122     0.813757
    2.3 B2    1  1s           0.161278     1.000000
              2 -1s    
    3.3 B2    3  2py         15.539616     0.070874
                              3.599934     0.339753
                              1.013762     0.727159
    4.3 B2    3  2py          0.270006     1.000000

 NUCLEAR CHARGE:                   10
 NUMBER OF PRIMITIVE AOS:          30
 NUMBER OF SYMMETRY AOS:           30
 NUMBER OF CONTRACTIONS:           13   (    7A1  +    2B1  +    4B2  +    0A2  )
 NUMBER OF CORE ORBITALS:           1   (    1A1  +    0B1  +    0B2  +    0A2  )
 NUMBER OF VALENCE ORBITALS:        6   (    3A1  +    1B1  +    2B2  +    0A2  )


 NUCLEAR REPULSION ENERGY    6.28757367

 Eigenvalues of metric

         1 0.134E+00 0.355E+00 0.427E+00 0.860E+00 0.111E+01 0.166E+01 0.271E+01
         2 0.498E+00 0.150E+01
         3 0.214E+00 0.378E+00 0.102E+01 0.214E+01


 Contracted 2-electron integrals neglected if value below      1.0D-11
 AO integral compression algorithm  1   Integral accuracy      1.0D-11

     0.262 MB (compressed) written to integral file (100.0%)


 NUMBER OF SORTED TWO-ELECTRON INTEGRALS:       1649.     BUFFER LENGTH:  32768
 NUMBER OF SEGMENTS:   1  SEGMENT LENGTH:       1649      RECORD LENGTH: 524288

 Memory used in sort:       0.56 MW

 SORT1 READ        2701. AND WROTE        1487. INTEGRALS IN      1 RECORDS. CPU TIME:     0.00 SEC, REAL TIME:     0.00 SEC
 SORT2 READ        1487. AND WROTE        1649. INTEGRALS IN      1 RECORDS. CPU TIME:     0.00 SEC, REAL TIME:     0.01 SEC

 FILE SIZES:   FILE 1:    30.2 MBYTE,  FILE 4:     4.2 MBYTE,   TOTAL:     34.4 MBYTE

 OPERATOR DM      FOR CENTER  0  COORDINATES:    0.000000    0.000000    0.000000


 **********************************************************************************************************************************
 DATASETS  * FILE   NREC   LENGTH (MB)   RECORD NAMES
              1      19       29.97       500      610      700      900      950      970     1000      129      960     1100   
                                          VAR    BASINP    GEOM    SYMINP    ZMAT    AOBASIS   BASIS     P2S    ABASIS      S 
                                         1400     1410     1200     1210     1080     1600     1650     1300     1700   
                                           T        V       H0       H01     AOSYM     SMH    MOLCAS    ERIS     OPER   

 PROGRAMS   *        TOTAL       INT
 CPU TIMES  *         0.24      0.14
 REAL TIME  *         0.38 SEC
 DISK USED  *        34.72 MB
 **********************************************************************************************************************************


 PROGRAM * RHF-SCF (CLOSED SHELL)       Authors: W. Meyer, H.-J. Werner


 NUMBER OF ELECTRONS:       5+    5-    SPACE SYMMETRY=1    SPIN SYMMETRY: Singlet 
 CONVERGENCE THRESHOLDS:    1.00E-05 (Density)    1.00E-07 (Energy)
 MAX. NUMBER OF ITERATIONS:       60
 INTERPOLATION TYPE:            DIIS
 INTERPOLATION STEPS:              2 (START)      1 (STEP)
 LEVEL SHIFTS:                  0.00 (CLOSED)  0.00 (OPEN) 




   Atom=H  basis=MINAO             lmin=0  lmax=0
   Atom=O  basis=MINAO             lmin=0  lmax=1

 Orbital guess generated from atomic densities. Full valence occupancy:    4   1   2   0

 Molecular orbital dump at record        2100.2

 Initial occupancy:   3   1   1

 ITERATION    DDIFF          GRAD             ENERGY        2-EL.EN.            DIPOLE MOMENTS         DIIS   ORB.
    1      0.000D+00      0.000D+00       -75.72722292     74.874957    0.00000    0.00000    1.95980    0    start
    2      0.000D+00      0.645D-01       -75.75833288     67.243456    0.00000    0.00000    0.68013    1    diag
    3      0.982D-01      0.671D-01       -75.81275601     70.521361    0.00000    0.00000    1.07804    2    diag
    4      0.449D-01      0.778D-02       -75.81409211     70.632472    0.00000    0.00000    1.00259    3    diag
    5      0.109D-01      0.121D-02       -75.81412562     70.658229    0.00000    0.00000    0.99833    4    diag
    6      0.177D-02      0.131D-03       -75.81412635     70.654178    0.00000    0.00000    0.99691    5    diag
    7      0.249D-03      0.412D-04       -75.81412650     70.653906    0.00000    0.00000    0.99674    6    diag
    8      0.113D-03      0.174D-04       -75.81412653     70.653828    0.00000    0.00000    0.99656    7    diag
    9      0.719D-04      0.310D-05       -75.81412653     70.653870    0.00000    0.00000    0.99655    8    diag
   10      0.118D-04      0.179D-06       -75.81412653     70.653870    0.00000    0.00000    0.99654    9    orth
   11      0.639D-06      0.885D-08       -75.81412653     70.653870    0.00000    0.00000    0.99654    0    orth

 Final occupancy:   3   1   1

 !RHF STATE  1.1 Energy               -75.814126534283
 Nuclear energy                         6.28757367
 One-electron energy                 -117.42863534
 Two-electron energy                   35.32693514
 Virial quotient                       -1.01056773
 !RHF STATE  1.1 Dipole moment          0.00000000     0.00000000     0.99654453
 Dipole moment /Debye                   0.00000000     0.00000000     2.53279764

 MOLECULAR ORBITALS
 ==================

   Orb  Occ    Energy       Coefficients

                            1 1s      1 1s      2 1s      2 1s      2 1s      2 2pz     2 2pz  

   1.1   2   -20.6356     0.000422  0.001338  0.995971  0.020374 -0.005623  0.001492 -0.001237

   2.1   2    -1.2271     0.081637  0.023610 -0.224537  0.507255  0.541316  0.029038  0.040533

   3.1   2    -0.4940     0.217029  0.280168  0.051696 -0.143129 -0.193524  0.499086  0.390288

                            2 2px     2 2px  

   1.2   2    -0.4988     0.662249  0.487464

                            1 1s      1 1s      2 2py     2 2py  

   1.3   2    -0.5319    -0.269449 -0.323278  0.456392  0.339569


 HOMO      3.1    -0.493960 =     -13.4413eV
 LUMO      4.1     0.081635 =       2.2214eV
 LUMO-HOMO         0.575595 =      15.6627eV


 **********************************************************************************************************************************
 DATASETS  * FILE   NREC   LENGTH (MB)   RECORD NAMES
              1      19       29.97       500      610      700      900      950      970     1000      129      960     1100   
                                          VAR    BASINP    GEOM    SYMINP    ZMAT    AOBASIS   BASIS     P2S    ABASIS      S 
                                         1400     1410     1200     1210     1080     1600     1650     1300     1700   
                                           T        V       H0       H01     AOSYM     SMH    MOLCAS    ERIS     OPER   

              2       4        2.76       700     1000      520     2100   
                                         GEOM     BASIS   MCVARS     RHF  

 PROGRAMS   *        TOTAL    HF-SCF       INT
 CPU TIMES  *         0.36      0.12      0.14
 REAL TIME  *         0.54 SEC
 DISK USED  *        34.72 MB
 **********************************************************************************************************************************


 PROGRAM * CISD (Closed-shell CI(SD))     Authors: C. Hampel, H.-J. Werner, 1991, M. Deegan, P.J. Knowles, 1992


 Input parameters for THRESH:

 PRINTCI  =    0.000000
 THRPRINT =    0.000000

 Convergence thresholds:  THRVAR = 1.00D-08  THRDEN = 1.00D-06

 Number of closed-shell orbitals:   5 (   3   1   1 )
 Number of external orbitals:       8 (   4   1   3 )

 Molecular orbitals read from record     2100.2  Type=RHF/CANONICAL (state 1.1)

 Number of N-1 electron functions:               5
 Number of N-2 electron functions:              15
 Number of singly external CSFs:                16
 Number of doubly external CSFs:               265
 Total number of CSFs:                         282

 Length of J-op  integral file:               0.00 MB
 Length of K-op  integral file:               0.04 MB

 Integral transformation finished. Total CPU:   0.00 sec, npass=  1  Memory used:   0.07 MW

 Reference energy:                    -75.81412653

 MP2 singlet pair energy:              -0.11538273
 MP2 triplet pair energy:              -0.05797613
 MP2 correlation energy:               -0.17335886
 MP2 total energy:                    -75.98748539

 SCS-MP2 correlation energy:           -0.17453331   (PS=  1.200000  PT=  0.333333)
 SCS-MP2 total energy:                -75.98865985

 ITER.      SQ.NORM     CORR.ENERGY   TOTAL ENERGY   ENERGY CHANGE        DEN1      VAR(S)    VAR(P)  DIIS     TIME  TIME/IT
   1      1.07238258    -0.16968048   -75.98380701     0.00367838     0.01614763  0.18D-02  0.39D-02  1  1     0.01     0.00
   2      1.08474511    -0.17130204   -75.98542857    -0.00162156    -0.00919961  0.86D-04  0.79D-03  2  2     0.01     0.00
   3      1.09774043    -0.17170735   -75.98583388    -0.00040531    -0.00531483  0.15D-04  0.38D-04  3  3     0.01     0.00
   4      1.10034647    -0.17256623   -75.98669277    -0.00085889    -0.00076162  0.83D-06  0.59D-05  4  4     0.01     0.00
   5      1.10083786    -0.17261099   -75.98673753    -0.00004476    -0.00006039  0.55D-06  0.94D-06  5  5     0.02     0.00
   6      1.10110414    -0.17261686   -75.98674339    -0.00000587    -0.00006546  0.62D-07  0.54D-07  6  6     0.02     0.00
   7      1.10112120    -0.17261863   -75.98674516    -0.00000177    -0.00000973  0.26D-08  0.54D-08  6  1     0.02     0.00
   8      1.10110793    -0.17261866   -75.98674520    -0.00000004     0.00000403  0.10D-08  0.52D-09  6  3     0.02     0.00
   9      1.10110553    -0.17261867   -75.98674520    -0.00000000    -0.00000006  0.74D-10  0.46D-10  6  2     0.02     0.00


 ! DIPOLE MOMENTS:                      0.00000000     0.00000000     0.83809437



 Norm of t1 vector:      0.05988366      S-energy:    -0.00056206      T1 diagnostic:  0.01339039

 Singles amplitudes (print threshold =  0.000E+00):

         I         SYM. A    A   T(IA)

         1         1         1     -0.00001560
         1         1         2     -0.00000031
         1         1         3      0.00014062
         1         1         4     -0.00014619
         2         1         1     -0.00505130
         2         1         2     -0.00055053
         2         1         3     -0.00646576
         2         1         4     -0.00193883
         3         1         1      0.02710695
         3         1         2      0.00393851
         3         1         3     -0.01078832
         3         1         4     -0.01647708
         4         2         1      0.00782317
         5         3         1     -0.00527645
         5         3         2     -0.00178326
         5         3         3     -0.02216298

 Doubles amplitudes (print threshold =  0.000E+00):

         I         J         SYM. A    SYM. B    A         B      T(IJ, AB)

         1         1         1         1         1         1     -0.00025269
         1         1         1         1         1         2     -0.00020938
         1         1         1         1         1         3     -0.00026243
         1         1         1         1         1         4     -0.00050730
         1         1         1         1         2         1     -0.00020938
         1         1         1         1         2         2     -0.00015439
         1         1         1         1         2         3     -0.00025687
         1         1         1         1         2         4     -0.00030292
         1         1         1         1         3         1     -0.00026243
         1         1         1         1         3         2     -0.00025687
         1         1         1         1         3         3     -0.00098801
         1         1         1         1         3         4      0.00010650
         1         1         1         1         4         1     -0.00050730
         1         1         1         1         4         2     -0.00030292
         1         1         1         1         4         3      0.00010650
         1         1         1         1         4         4     -0.00109970
         1         1         2         2         1         1     -0.00096812
         1         1         3         3         1         1     -0.00022357
         1         1         3         3         1         2     -0.00017704
         1         1         3         3         1         3      0.00053867
         1         1         3         3         2         1     -0.00017704
         1         1         3         3         2         2     -0.00011785
         1         1         3         3         2         3      0.00035135
         1         1         3         3         3         1      0.00053867
         1         1         3         3         3         2      0.00035135
         1         1         3         3         3         3     -0.00095622
         2         1         1         1         1         1     -0.00033365
         2         1         1         1         1         2     -0.00030978
         2         1         1         1         1         3     -0.00081621
         2         1         1         1         1         4     -0.00029968
         2         1         1         1         2         1     -0.00019977
         2         1         1         1         2         2     -0.00015409
         2         1         1         1         2         3     -0.00042477
         2         1         1         1         2         4     -0.00015002
         2         1         1         1         3         1     -0.00047306
         2         1         1         1         3         2     -0.00034019
         2         1         1         1         3         3     -0.00061096
         2         1         1         1         3         4     -0.00049357
         2         1         1         1         4         1     -0.00012320
         2         1         1         1         4         2     -0.00012034
         2         1         1         1         4         3     -0.00054174
         2         1         1         1         4         4      0.00017133
         2         1         2         2         1         1     -0.00095365
         2         1         3         3         1         1     -0.00048240
         2         1         3         3         1         2     -0.00032643
         2         1         3         3         1         3      0.00094052
         2         1         3         3         2         1     -0.00022174
         2         1         3         3         2         2     -0.00013415
         2         1         3         3         2         3      0.00040770
         2         1         3         3         3         1      0.00054478
         2         1         3         3         3         2      0.00033491
         2         1         3         3         3         3     -0.00087475
         2         2         1         1         1         1     -0.02140701
         2         2         1         1         1         2     -0.00798275
         2         2         1         1         1         3     -0.00319571
         2         2         1         1         1         4     -0.01140754
         2         2         1         1         2         1     -0.00798275
         2         2         1         1         2         2     -0.00404926
         2         2         1         1         2         3     -0.00239809
         2         2         1         1         2         4     -0.00439842
         2         2         1         1         3         1     -0.00319571
         2         2         1         1         3         2     -0.00239809
         2         2         1         1         3         3     -0.01006730
         2         2         1         1         3         4      0.00334342
         2         2         1         1         4         1     -0.01140754
         2         2         1         1         4         2     -0.00439842
         2         2         1         1         4         3      0.00334342
         2         2         1         1         4         4     -0.01515026
         2         2         2         2         1         1     -0.00994314
         2         2         3         3         1         1     -0.01672614
         2         2         3         3         1         2     -0.00592772
         2         2         3         3         1         3      0.00921919
         2         2         3         3         2         1     -0.00592772
         2         2         3         3         2         2     -0.00288215
         2         2         3         3         2         3      0.00385482
         2         2         3         3         3         1      0.00921919
         2         2         3         3         3         2      0.00385482
         2         2         3         3         3         3     -0.00842642
         3         1         1         1         1         1     -0.00013458
         3         1         1         1         1         2     -0.00004788
         3         1         1         1         1         3      0.00002137
         3         1         1         1         1         4     -0.00006681
         3         1         1         1         2         1     -0.00000082
         3         1         1         1         2         2      0.00000856
         3         1         1         1         2         3      0.00001620
         3         1         1         1         2         4      0.00006871
         3         1         1         1         3         1      0.00039449
         3         1         1         1         3         2      0.00026068
         3         1         1         1         3         3      0.00034414
         3         1         1         1         3         4      0.00046683
         3         1         1         1         4         1     -0.00034447
         3         1         1         1         4         2     -0.00021639
         3         1         1         1         4         3     -0.00046176
         3         1         1         1         4         4     -0.00017428
         3         1         2         2         1         1      0.00025931
         3         1         3         3         1         1      0.00014639
         3         1         3         3         1         2      0.00009655
         3         1         3         3         1         3     -0.00030077
         3         1         3         3         2         1      0.00009243
         3         1         3         3         2         2      0.00005528
         3         1         3         3         2         3     -0.00017405
         3         1         3         3         3         1     -0.00009563
         3         1         3         3         3         2     -0.00006655
         3         1         3         3         3         3      0.00018810
         3         2         1         1         1         1     -0.02864367
         3         2         1         1         1         2     -0.01084294
         3         2         1         1         1         3      0.00332229
         3         2         1         1         1         4     -0.01270472
         3         2         1         1         2         1     -0.00979731
         3         2         1         1         2         2     -0.00637498
         3         2         1         1         2         3      0.00363777
         3         2         1         1         2         4     -0.00627480
         3         2         1         1         3         1     -0.00385043
         3         2         1         1         3         2      0.00093862
         3         2         1         1         3         3      0.01461449
         3         2         1         1         3         4     -0.01333571
         3         2         1         1         4         1     -0.00594538
         3         2         1         1         4         2     -0.00325456
         3         2         1         1         4         3     -0.00486898
         3         2         1         1         4         4     -0.00590060
         3         2         2         2         1         1      0.00209598
         3         2         3         3         1         1      0.00350892
         3         2         3         3         1         2     -0.00260782
         3         2         3         3         1         3     -0.00160994
         3         2         3         3         2         1      0.00026208
         3         2         3         3         2         2     -0.00340227
         3         2         3         3         2         3     -0.00089896
         3         2         3         3         3         1     -0.00277372
         3         2         3         3         3         2     -0.00107896
         3         2         3         3         3         3      0.00228264
         3         3         1         1         1         1     -0.10460751
         3         3         1         1         1         2     -0.02987982
         3         3         1         1         1         3     -0.02288408
         3         3         1         1         1         4     -0.00463604
         3         3         1         1         2         1     -0.02987982
         3         3         1         1         2         2     -0.01595006
         3         3         1         1         2         3     -0.00938404
         3         3         1         1         2         4     -0.00094691
         3         3         1         1         3         1     -0.02288408
         3         3         1         1         3         2     -0.00938404
         3         3         1         1         3         3     -0.03004319
         3         3         1         1         3         4     -0.00006026
         3         3         1         1         4         1     -0.00463604
         3         3         1         1         4         2     -0.00094691
         3         3         1         1         4         3     -0.00006026
         3         3         1         1         4         4     -0.00511731
         3         3         2         2         1         1     -0.00423053
         3         3         3         3         1         1     -0.05432173
         3         3         3         3         1         2     -0.01824701
         3         3         3         3         1         3      0.00301053
         3         3         3         3         2         1     -0.01824701
         3         3         3         3         2         2     -0.01110288
         3         3         3         3         2         3      0.00051074
         3         3         3         3         3         1      0.00301053
         3         3         3         3         3         2      0.00051074
         3         3         3         3         3         3     -0.00110084
         4         4         1         1         1         1     -0.01637274
         4         4         1         1         1         2     -0.00432116
         4         4         1         1         1         3     -0.00065455
         4         4         1         1         1         4     -0.00688495
         4         4         1         1         2         1     -0.00432116
         4         4         1         1         2         2     -0.00114819
         4         4         1         1         2         3     -0.00113341
         4         4         1         1         2         4     -0.00138839
         4         4         1         1         3         1     -0.00065455
         4         4         1         1         3         2     -0.00113341
         4         4         1         1         3         3     -0.00694014
         4         4         1         1         3         4      0.00407956
         4         4         1         1         4         1     -0.00688495
         4         4         1         1         4         2     -0.00138839
         4         4         1         1         4         3      0.00407956
         4         4         1         1         4         4     -0.01192612
         4         4         2         2         1         1     -0.04940583
         4         4         3         3         1         1     -0.00979387
         4         4         3         3         1         2     -0.00272054
         4         4         3         3         1         3      0.00428844
         4         4         3         3         2         1     -0.00272054
         4         4         3         3         2         2     -0.00046885
         4         4         3         3         2         3      0.00155925
         4         4         3         3         3         1      0.00428844
         4         4         3         3         3         2      0.00155925
         4         4         3         3         3         3     -0.00453709
         5         5         1         1         1         1     -0.06322530
         5         5         1         1         1         2     -0.02372998
         5         5         1         1         1         3      0.00239931
         5         5         1         1         1         4     -0.00279080
         5         5         1         1         2         1     -0.02372998
         5         5         1         1         2         2     -0.01743542
         5         5         1         1         2         3      0.00163333
         5         5         1         1         2         4     -0.00044850
         5         5         1         1         3         1      0.00239931
         5         5         1         1         3         2      0.00163333
         5         5         1         1         3         3     -0.00272452
         5         5         1         1         3         4      0.00276153
         5         5         1         1         4         1     -0.00279080
         5         5         1         1         4         2     -0.00044850
         5         5         1         1         4         3      0.00276153
         5         5         1         1         4         4     -0.00420774
         5         5         2         2         1         1     -0.00304810
         5         5         3         3         1         1     -0.11110369
         5         5         3         3         1         2     -0.03218770
         5         5         3         3         1         3      0.01972633
         5         5         3         3         2         1     -0.03218770
         5         5         3         3         2         2     -0.01866341
         5         5         3         3         2         3      0.00603055
         5         5         3         3         3         1      0.01972633
         5         5         3         3         3         2      0.00603055
         5         5         3         3         3         3     -0.01781238
         4         1         1         2         1         1     -0.00036731
         4         1         1         2         2         1     -0.00017349
         4         1         1         2         3         1      0.00044984
         4         1         1         2         4         1     -0.00074359
         4         1         2         1         1         1      0.00008233
         4         1         2         1         1         2      0.00004078
         4         1         2         1         1         3     -0.00015249
         4         1         2         1         1         4      0.00027433
         4         2         1         2         1         1     -0.00787623
         4         2         1         2         2         1     -0.00195034
         4         2         1         2         3         1      0.00612353
         4         2         1         2         4         1     -0.01181797
         4         2         2         1         1         1     -0.01478748
         4         2         2         1         1         2     -0.00397256
         4         2         2         1         1         3      0.01113799
         4         2         2         1         1         4     -0.02194364
         4         3         1         2         1         1     -0.00510056
         4         3         1         2         2         1     -0.00259822
         4         3         1         2         3         1     -0.00821939
         4         3         1         2         4         1     -0.00087905
         4         3         2         1         1         1     -0.02204498
         4         3         2         1         1         2     -0.01001274
         4         3         2         1         1         3     -0.02648300
         4         3         2         1         1         4     -0.00352388
         5         1         1         3         1         1      0.00014828
         5         1         1         3         1         2      0.00007979
         5         1         1         3         1         3     -0.00015045
         5         1         1         3         2         1      0.00003988
         5         1         1         3         2         2      0.00002015
         5         1         1         3         2         3     -0.00001935
         5         1         1         3         3         1     -0.00020720
         5         1         1         3         3         2     -0.00011734
         5         1         1         3         3         3      0.00028528
         5         1         1         3         4         1      0.00044639
         5         1         1         3         4         2      0.00024291
         5         1         1         3         4         3     -0.00057562
         5         1         3         1         1         1     -0.00000388
         5         1         3         1         1         2     -0.00001257
         5         1         3         1         1         3     -0.00009100
         5         1         3         1         1         4      0.00000071
         5         1         3         1         2         1     -0.00004508
         5         1         3         1         2         2     -0.00002837
         5         1         3         1         2         3     -0.00003680
         5         1         3         1         2         4     -0.00008066
         5         1         3         1         3         1      0.00003177
         5         1         3         1         3         2      0.00000940
         5         1         3         1         3         3     -0.00017015
         5         1         3         1         3         4      0.00020661
         5         2         1         3         1         1      0.01536113
         5         2         1         3         1         2      0.00872012
         5         2         1         3         1         3     -0.00644885
         5         2         1         3         2         1      0.00619944
         5         2         1         3         2         2      0.00615116
         5         2         1         3         2         3     -0.00137781
         5         2         1         3         3         1     -0.00377767
         5         2         1         3         3         2     -0.00222214
         5         2         1         3         3         3      0.00460898
         5         2         1         3         4         1      0.00682706
         5         2         1         3         4         2      0.00303175
         5         2         1         3         4         3     -0.00704929
         5         2         3         1         1         1      0.01988566
         5         2         3         1         1         2      0.00860635
         5         2         3         1         1         3     -0.00775763
         5         2         3         1         1         4      0.01439676
         5         2         3         1         2         1      0.00660757
         5         2         3         1         2         2      0.00607932
         5         2         3         1         2         3     -0.00344265
         5         2         3         1         2         4      0.00598498
         5         2         3         1         3         1     -0.01064793
         5         2         3         1         3         2     -0.00258871
         5         2         3         1         3         3      0.00827189
         5         2         3         1         3         4     -0.01394209
         5         3         1         3         1         1      0.07150947
         5         3         1         3         1         2      0.02314615
         5         3         1         3         1         3     -0.00387990
         5         3         1         3         2         1      0.02562328
         5         3         1         3         2         2      0.01511540
         5         3         1         3         2         3     -0.00086789
         5         3         1         3         3         1      0.00526691
         5         3         1         3         3         2      0.00080228
         5         3         1         3         3         3     -0.00360220
         5         3         1         3         4         1     -0.00004264
         5         3         1         3         4         2     -0.00044822
         5         3         1         3         4         3      0.00143148
         5         3         3         1         1         1      0.08280437
         5         3         3         1         1         2      0.02553454
         5         3         3         1         1         3      0.02042735
         5         3         3         1         1         4      0.00188114
         5         3         3         1         2         1      0.02386443
         5         3         3         1         2         2      0.01539307
         5         3         3         1         2         3      0.00548857
         5         3         3         1         2         4      0.00090908
         5         3         3         1         3         1     -0.01306852
         5         3         3         1         3         2     -0.00515459
         5         3         3         1         3         3     -0.01471053
         5         3         3         1         3         4      0.00017533
         5         4         2         3         1         1      0.00763827
         5         4         2         3         1         2      0.00282380
         5         4         2         3         1         3     -0.00685714
         5         4         3         2         1         1      0.02690087
         5         4         3         2         2         1      0.00895734
         5         4         3         2         3         1     -0.02278188


 RESULTS
 =======

  Reference energy                    -75.814126534283

  Correlated core orbitals:             1.1
  Orbital energies:                   -20.6356

  CISD core-core energy                -0.000264066035
  CISD core-valence energy             -0.000605320743
  CISD valence correlation energy      -0.171749281140

  CISD singlet pair energy             -0.138858256613
  CISD triplet pair energy             -0.033198349403
  CISD correlation energy              -0.172618667918

 !CISD total energy                   -75.986745202201

 Timing summary (sec):

 STEP                 CPU(USER)    SYS     CPU(TOT)    WALL
 CCSD iterations         0.02      0.00      0.02      0.03

 Program statistics:

 Available memory in ccsd:                39999897
 Min. memory needed in ccsd:                  2470
 Max. memory used in ccsd:                    2517
 Max. memory used in cckext:                 35598 ( 9 integral passes)



 **********************************************************************************************************************************
 DATASETS  * FILE   NREC   LENGTH (MB)   RECORD NAMES
              1      20       29.98       500      610      700      900      950      970     1000      129      960     1100   
                                          VAR    BASINP    GEOM    SYMINP    ZMAT    AOBASIS   BASIS     P2S    ABASIS      S 
                                         1400     1410     1200     1210     1080     1600     1650     1300     1700     1380   
                                           T        V       H0       H01     AOSYM     SMH    MOLCAS    ERIS     OPER     JKOP   

              2       4        2.76       700     1000      520     2100   
                                         GEOM     BASIS   MCVARS     RHF  

 PROGRAMS   *        TOTAL      CISD    HF-SCF       INT
 CPU TIMES  *         0.42      0.06      0.12      0.14
 REAL TIME  *         0.60 SEC
 DISK USED  *        34.72 MB
 **********************************************************************************************************************************
