
 Primary working directories    : /scr/yuriaoto/job.023105/molpro.5kucTtpDjE
 Secondary working directories  : /scr/yuriaoto/job.023105/molpro.5kucTtpDjE
 Wavefunction directory         : /scr/yuriaoto/job.023105/
 Main file repository           : /scr/yuriaoto/job.023105/molpro.5kucTtpDjE/

 id        : yuriaoto

 Nodes             nprocs
 t-rex.ufabc.int.br    1

 Using customized tuning parameters: mindgm=8; mindgv=16; mindgc=1; mindgr=1; noblas=0; minvec=7
 default implementation of scratch files=df  


 Variables initialized (933), CPU time= 0.01 sec
 ***,
 memory,40,m
 gprint,orbital,basis,civector
 gthresh,thrprint=0,printci=0.0
 file,3,wfu.dat,old
 
 {fci
 wf,6,1,0;
 core,0
 }
 Commands  initialized (760), CPU time= 0.00 sec, 617 directives.
 Default parameters read. Elapsed time= 0.03 sec

 Checking input...
 Passed
1


                                         ***  PROGRAM SYSTEM MOLPRO  ***
                                       Copyright, TTI GmbH Stuttgart, 2015
                                    Version 2019.2 linked Abr  7 2019 15:10:35


 **********************************************************************************************************************************
 LABEL *                                                                                 
  64 bit serial version                                                                  DATE: 19-Apr-20          TIME: 17:51:03  
 **********************************************************************************************************************************

 SHA1:             3a8a58c585c929645742fb5a1b7541a4ad1da699
 **********************************************************************************************************************************


 THRESHOLDS:

 ZERO    =  1.00D-12  ONEINT  =  1.00D-12  TWOINT  =  1.00D-11  PREFAC  =  1.00D-14  XXXXXX  =  1.00D-09  EORDER  =  1.00D-04
 ENERGY  =  0.00D+00  ETEST   =  0.00D+00  EDENS   =  0.00D+00  THRDEDEF=  1.00D-06  GRADIENT=  1.00D-02  STEP    =  1.00D-03
 ORBITAL =  1.00D-05  CIVEC   =  1.00D-05  COEFF   =  1.00D-04  PRINTCI =  0.00D+00  PUNCHCI =  9.90D+01  OPTGRAD =  3.00D-04
 OPTENERG=  1.00D-06  OPTSTEP =  3.00D-04  THRGRAD =  1.00D-10  COMPRESS=  1.00D-11  VARMIN  =  1.00D-07  VARMAX  =  1.00D-03
 THRDOUB =  0.00D+00  THRDIV  =  1.00D-05  THRRED  =  1.00D-07  THRPSP  =  1.00D+00  THRDC   =  1.00D-10  THRCS   =  1.00D-10
 THRNRM  =  1.00D-08  THREQ   =  0.00D+00  THRDE   =  1.00D+00  THRREF  =  1.00D-05  SPARFAC =  1.00D+00  THRDLP  =  1.00D-07
 THRDIA  =  1.00D-10  THRDLS  =  1.00D-07  THRGPS  =  0.00D+00  THRKEX  =  0.00D+00  THRDIS  =  2.00D-01  THRVAR  =  1.00D-10
 THRLOC  =  1.00D-06  THRGAP  =  1.00D-06  THRLOCT = -1.00D+00  THRGAPT = -1.00D+00  THRORB  =  1.00D-06  THRMLTP =  0.00D+00
 THRCPQCI=  1.00D-10  KEXTA   =  0.00D+00  THRCOARS=  0.00D+00  SYMTOL  =  1.00D-06  GRADTOL =  1.00D-06  THROVL  =  1.00D-08
 THRORTH =  1.00D-08  GRID    =  1.00D-06  GRIDMAX =  1.00D-03  DTMAX   =  0.00D+00  THROCCDE=  1.00D-01  THROCCDE=  1.00D-01
 THRPRINT=  0.00D+00


 Variable memory set to   40000000 words,  buffer space 



 Permanent file  3  wfu.dat  assigned.  Implementation=df    Size= 14.08 MB


 PROGRAM * RESTART 


 Reading variables from file 3

 _FNUC           =      0.00000000
 _BASIS          =    STO-3G
 _NELEC          =      6.00000000
 _PROGRAM        =    RHF-SCF
 _DMZ            =     -0.00000000
 _DMX_SCF        =      0.00000000
 _DMY_SCF        =      0.00000000
 _DMZ_SCF        =     -0.00000000
 _HOMO           =      3.10000000
 _EHOMO          =     -0.15007102
 _LUMO           =      4.10000000
 _ELUMO          =      0.08336193
 _ENERGY         =    -14.63864283
 _ENERGY_METHOD  =    RHF
 _ENERGY_BASIS   =    STO-3G
 _ENUC           =      1.80000000
 _EPS1(1:6)      =     -2.32975138    -2.32973347    -0.15007102     0.08336193     0.15828123     0.47434817
 _EPS2(1:2)      =      0.13305715     0.24181392
 _EPS3(1:2)      =      0.13305715     0.24181392
 _IPROC_MPP      =      0.00000000
 _IPROC_MPPX     =      0.00000000
 _ORBITAL        =   2100.30000000
 _STATUS         =      1.00000000
 _DATE           =    21-Oct-19
 _LASTORB        =    RHF
 _OUTPUT         =    /scr/yuriaoto/job.022398/RHF.xml
 _PGROUP         =    C2v 
 _TIME           =    10:12:38
 R               =      5.00000000

 Geometry written to block  1 of record 700


 **********************************************************************************************************************************
 DATASETS  * FILE   NREC   LENGTH (MB)   RECORD NAMES
              3       5       14.77       500      610      700     1000     2100   
                                          VAR    BASINP    GEOM     BASIS     RHF  

 PROGRAMS   *        TOTAL   RESTART
 CPU TIMES  *         0.13      0.03
 REAL TIME  *         0.17 SEC
 DISK USED  *        26.84 MB
 **********************************************************************************************************************************


 Recomputing integrals since basis changed


 Using spherical harmonics

 Library entry LI     S STO-3G               selected for orbital group  1
 Library entry LI     P STO-3G               selected for orbital group  1


 PROGRAM * SEWARD (Integral evaluation for generally contracted gaussian basis sets)     Author: Roland Lindh, 1990

 Geometry written to block  1 of record 700

 Orientation using atomic masses  
 Molecule type: Linear
 User-specified symmetry elements: X,Y
 Symmetry elements: X,Y
 Rotational constants:      20.8009354     20.8009354      0.0000000 GHz  (calculated with average atomic masses)

 Point group  C2v 



 ATOMIC COORDINATES

 NR  ATOM    CHARGE       X              Y              Z

   1  LI1     3.00    0.000000000    0.000000000   -2.500000000
   2  LI2     3.00    0.000000000    0.000000000    2.500000000

 Bond lengths in Bohr (Angstrom)

 1-2  5.000000000
     ( 2.645886055)


 BASIS DATA

   Nr Sym  Nuc  Type         Exponents   Contraction coefficients

    1.1 A1    1  1s          16.119575     0.154329
                              2.936201     0.535328
                              0.794651     0.444635
    2.1 A1    1  1s           0.636290    -0.099967
                              0.147860     0.399513
                              0.048089     0.700115
    3.1 A1    1  2pz          0.636290     0.155916
                              0.147860     0.607684
                              0.048089     0.391957
    4.1 A1    2  1s          16.119575     0.154329
                              2.936201     0.535328
                              0.794651     0.444635
    5.1 A1    2  1s           0.636290    -0.099967
                              0.147860     0.399513
                              0.048089     0.700115
    6.1 A1    2  2pz          0.636290     0.155916
                              0.147860     0.607684
                              0.048089     0.391957
    1.2 B1    1  2px          0.636290     0.155916
                              0.147860     0.607684
                              0.048089     0.391957
    2.2 B1    2  2px          0.636290     0.155916
                              0.147860     0.607684
                              0.048089     0.391957
    1.3 B2    1  2py          0.636290     0.155916
                              0.147860     0.607684
                              0.048089     0.391957
    2.3 B2    2  2py          0.636290     0.155916
                              0.147860     0.607684
                              0.048089     0.391957

 NUCLEAR CHARGE:                    6
 NUMBER OF PRIMITIVE AOS:          30
 NUMBER OF SYMMETRY AOS:           30
 NUMBER OF CONTRACTIONS:           10   (    6A1  +    2B1  +    2B2  +    0A2  )
 NUMBER OF CORE ORBITALS:           2   (    2A1  +    0B1  +    0B2  +    0A2  )
 NUMBER OF VALENCE ORBITALS:        8   (    4A1  +    2B1  +    2B2  +    0A2  )


 NUCLEAR REPULSION ENERGY    1.80000000

 Eigenvalues of metric

         1 0.155E+00 0.805E+00 0.846E+00 0.104E+01 0.123E+01 0.192E+01
         2 0.713E+00 0.129E+01
         3 0.713E+00 0.129E+01


 Contracted 2-electron integrals neglected if value below      1.0D-11
 AO integral compression algorithm  1   Integral accuracy      1.0D-11

     0.262 MB (compressed) written to integral file (100.0%)


 NUMBER OF SORTED TWO-ELECTRON INTEGRALS:        648.     BUFFER LENGTH:  32768
 NUMBER OF SEGMENTS:   1  SEGMENT LENGTH:        648      RECORD LENGTH: 524288

 Memory used in sort:       0.56 MW

 SORT1 READ         777. AND WROTE         608. INTEGRALS IN      1 RECORDS. CPU TIME:     0.00 SEC, REAL TIME:     0.00 SEC
 SORT2 READ         608. AND WROTE         648. INTEGRALS IN      1 RECORDS. CPU TIME:     0.00 SEC, REAL TIME:     0.00 SEC

 FILE SIZES:   FILE 1:    30.2 MBYTE,  FILE 4:     4.2 MBYTE,   TOTAL:     34.4 MBYTE

 OPERATOR DM      FOR CENTER  0  COORDINATES:    0.000000    0.000000    0.000000


 **********************************************************************************************************************************
 DATASETS  * FILE   NREC   LENGTH (MB)   RECORD NAMES
              1      19       29.94       500      700      610      900      950      970     1000      129      960     1100   
                                          VAR     GEOM    BASINP   SYMINP    ZMAT    AOBASIS   BASIS     P2S    ABASIS      S 
                                         1400     1410     1200     1210     1080     1600     1650     1300     1700   
                                           T        V       H0       H01     AOSYM     SMH    MOLCAS    ERIS     OPER   

              3       5       14.77       500      610      700     1000     2100   
                                          VAR    BASINP    GEOM     BASIS     RHF  

 PROGRAMS   *        TOTAL       INT   RESTART
 CPU TIMES  *         0.29      0.16      0.03
 REAL TIME  *         0.48 SEC
 DISK USED  *        49.42 MB
 **********************************************************************************************************************************


 PROGRAM * FCI (Full CI)     Author: P.J. Knowles, 1984


 Molecular orbitals read from record     2100.3  Type=RHF/CANONICAL (state 1.1)

 Frozen orbitals:              0 (  0  0  0  0  0  0  0  0)
 Active orbitals:             10 (  6  2  2  0  0  0  0  0)
 Active electrons:             6
 Spin quantum number:          0.0
 Orbital pairs:                    27      12      12       4       0       0       0       0
 Strings:                          32      32      32      24       0       0       0       0
                                   32      32      32      24       0       0       0       0
 Determinants:                           3648            3584            3584            3584
                                            0               0               0               0

 Load integrals                0.9 sec
 Transform integrals           0.9 sec
 Storage for integrals:           1243
 Remaining memory:            39997657

 Core energy:               1.80000000
 Run Hamiltonian processor DAVIDSON
 Symmetry:                   1
 Trial vector:                  0.00
 Result vector:                 0.00
 Maximum iterations:           90
 Convergence threshold:         0.0000100
 RHS vector:                    0.00
 Hamiltonian shift:             0.0000000
 Output threshold:              0.0000000
 Options:                        0
 Number of roots:             1

 Hamiltonian diagonaliser entered at time      0.88

 Initial configuration generated:
       1      1.0000000    -14.6386428

 It  Tr    CPU  Convergence   Energy       Pop     dE(next)

  1   1    0.9  1.00000000   -14.63864283
                                           0.01 -0.04156957 -0.04131206
  2   1    0.9  0.26696958   -14.66507957
                                           0.03 -0.00246529 -0.00242533
  3   1    0.9  0.08185856   -14.66710203
                                           0.06 -0.00030435 -0.00029926
  4   1    0.9  0.02644344   -14.66736095
                                           0.09 -0.00001060 -0.00001041
  5   1    0.9  0.00345251   -14.66737127
                                           0.13 -0.00000063 -0.00000060
  6   1    0.9  0.00132053   -14.66737196
                                           0.17 -0.00000008 -0.00000007
  7   1    0.9  0.00024335   -14.66737203
                                           0.19 -0.00000001 -0.00000001
  8   1    0.9  0.00004984   -14.66737204
                                           0.19 -0.00000000 -0.00000000
  9   1    0.9  0.00001257   -14.66737204
                                           0.20 -0.00000000 -0.00000000
 10   1    0.9  0.00000306   -14.66737204


RESULTS FOR STATE  1.1
=====================

 Correlation energy                    -0.028729205349
 !FCI STATE  1.1 Energy               -14.667372039332
 CI Vector (threshold=  0.00    )
       0.953286211338  1  2  3  1  2  3
       0.000000000000  1  2  3  1  2  4
      -0.043310231453  1  2  3  1  2  5
       0.000000000000  1  2  3  1  2  6
      -0.000775463798  1  2  3  1  3  4
       0.000000000000  1  2  3  1  3  5
      -0.000957180610  1  2  3  1  3  6
       0.000175419789  1  2  3  1  4  5
       0.000000000000  1  2  3  1  4  6
       0.001677665627  1  2  3  1  5  6
       0.000621360101  1  2  3  1  7  8
       0.000621360101  1  2  3  1  9 10
       0.000000000000  1  2  3  2  3  4
       0.000301312693  1  2  3  2  3  5
       0.000000000000  1  2  3  2  3  6
       0.000000000000  1  2  3  2  4  5
       0.000417917558  1  2  3  2  4  6
       0.000000000000  1  2  3  2  5  6
       0.000000000000  1  2  3  2  7  8
       0.000000000000  1  2  3  2  9 10
      -0.000062909638  1  2  3  3  4  5
       0.000000000000  1  2  3  3  4  6
      -0.000107837465  1  2  3  3  5  6
      -0.000059359663  1  2  3  3  7  8
      -0.000059359663  1  2  3  3  9 10
       0.000000000000  1  2  3  4  5  6
       0.000000000000  1  2  3  4  7  8
       0.000000000000  1  2  3  4  9 10
       0.000002489076  1  2  3  5  7  8
       0.000002489076  1  2  3  5  9 10
       0.000000000000  1  2  3  6  7  8
       0.000000000000  1  2  3  6  9 10
       0.000000000000  1  2  4  1  2  3
      -0.142447674833  1  2  4  1  2  4
       0.000000000000  1  2  4  1  2  5
      -0.049679589475  1  2  4  1  2  6
       0.000000000000  1  2  4  1  3  4
      -0.001033453562  1  2  4  1  3  5
       0.000000000000  1  2  4  1  3  6
       0.000000000000  1  2  4  1  4  5
       0.001258776581  1  2  4  1  4  6
       0.000000000000  1  2  4  1  5  6
       0.000000000000  1  2  4  1  7  8
       0.000000000000  1  2  4  1  9 10
       0.001266128273  1  2  4  2  3  4
       0.000000000000  1  2  4  2  3  5
       0.002604480355  1  2  4  2  3  6
      -0.000897988125  1  2  4  2  4  5
       0.000000000000  1  2  4  2  4  6
       0.000612382097  1  2  4  2  5  6
       0.000275153788  1  2  4  2  7  8
       0.000275153788  1  2  4  2  9 10
       0.000000000000  1  2  4  3  4  5
       0.000002357567  1  2  4  3  4  6
       0.000000000000  1  2  4  3  5  6
       0.000000000000  1  2  4  3  7  8
       0.000000000000  1  2  4  3  9 10
       0.000018019910  1  2  4  4  5  6
       0.000011751857  1  2  4  4  7  8
       0.000011751857  1  2  4  4  9 10
       0.000000000000  1  2  4  5  7  8
       0.000000000000  1  2  4  5  9 10
       0.000008885780  1  2  4  6  7  8
       0.000008885780  1  2  4  6  9 10
      -0.043310231453  1  2  5  1  2  3
       0.000000000000  1  2  5  1  2  4
      -0.094254500551  1  2  5  1  2  5
       0.000000000000  1  2  5  1  2  6
      -0.001208932778  1  2  5  1  3  4
       0.000000000000  1  2  5  1  3  5
       0.003462010797  1  2  5  1  3  6
      -0.000656341585  1  2  5  1  4  5
       0.000000000000  1  2  5  1  4  6
       0.000538222310  1  2  5  1  5  6
      -0.000058912707  1  2  5  1  7  8
      -0.000058912707  1  2  5  1  9 10
       0.000000000000  1  2  5  2  3  4
      -0.003280011761  1  2  5  2  3  5
       0.000000000000  1  2  5  2  3  6
       0.000000000000  1  2  5  2  4  5
       0.001033744156  1  2  5  2  4  6
       0.000000000000  1  2  5  2  5  6
       0.000000000000  1  2  5  2  7  8
       0.000000000000  1  2  5  2  9 10
      -0.000006649146  1  2  5  3  4  5
       0.000000000000  1  2  5  3  4  6
      -0.000003261003  1  2  5  3  5  6
       0.000004735589  1  2  5  3  7  8
       0.000004735589  1  2  5  3  9 10
       0.000000000000  1  2  5  4  5  6
       0.000000000000  1  2  5  4  7  8
       0.000000000000  1  2  5  4  9 10
       0.000002824579  1  2  5  5  7  8
       0.000002824579  1  2  5  5  9 10
       0.000000000000  1  2  5  6  7  8
       0.000000000000  1  2  5  6  9 10
       0.000000000000  1  2  6  1  2  3
      -0.049679589475  1  2  6  1  2  4
       0.000000000000  1  2  6  1  2  5
      -0.023621142177  1  2  6  1  2  6
       0.000000000000  1  2  6  1  3  4
       0.001784304399  1  2  6  1  3  5
       0.000000000000  1  2  6  1  3  6
       0.000000000000  1  2  6  1  4  5
      -0.000281556536  1  2  6  1  4  6
       0.000000000000  1  2  6  1  5  6
       0.000000000000  1  2  6  1  7  8
       0.000000000000  1  2  6  1  9 10
       0.002186529775  1  2  6  2  3  4
       0.000000000000  1  2  6  2  3  5
      -0.001131997171  1  2  6  2  3  6
       0.000421357928  1  2  6  2  4  5
       0.000000000000  1  2  6  2  4  6
      -0.000224589704  1  2  6  2  5  6
       0.000240665274  1  2  6  2  7  8
       0.000240665274  1  2  6  2  9 10
       0.000000000000  1  2  6  3  4  5
       0.000001411379  1  2  6  3  4  6
       0.000000000000  1  2  6  3  5  6
       0.000000000000  1  2  6  3  7  8
       0.000000000000  1  2  6  3  9 10
       0.000016157830  1  2  6  4  5  6
       0.000006372386  1  2  6  4  7  8
       0.000006372386  1  2  6  4  9 10
       0.000000000000  1  2  6  5  7  8
       0.000000000000  1  2  6  5  9 10
       0.000002129129  1  2  6  6  7  8
       0.000002129129  1  2  6  6  9 10
      -0.000775463798  1  3  4  1  2  3
       0.000000000000  1  3  4  1  2  4
      -0.001208932778  1  3  4  1  2  5
       0.000000000000  1  3  4  1  2  6
      -0.001915672280  1  3  4  1  3  4
       0.000000000000  1  3  4  1  3  5
      -0.000836555505  1  3  4  1  3  6
      -0.000045666748  1  3  4  1  4  5
       0.000000000000  1  3  4  1  4  6
       0.000053788434  1  3  4  1  5  6
       0.000022077934  1  3  4  1  7  8
       0.000022077934  1  3  4  1  9 10
       0.000000000000  1  3  4  2  3  4
      -0.000775993679  1  3  4  2  3  5
       0.000000000000  1  3  4  2  3  6
       0.000000000000  1  3  4  2  4  5
       0.000188867553  1  3  4  2  4  6
       0.000000000000  1  3  4  2  5  6
       0.000000000000  1  3  4  2  7  8
       0.000000000000  1  3  4  2  9 10
      -0.000003637584  1  3  4  3  4  5
       0.000000000000  1  3  4  3  4  6
      -0.000001137328  1  3  4  3  5  6
      -0.000002503902  1  3  4  3  7  8
      -0.000002503902  1  3  4  3  9 10
       0.000000000000  1  3  4  4  5  6
       0.000000000000  1  3  4  4  7  8
       0.000000000000  1  3  4  4  9 10
      -0.000000264008  1  3  4  5  7  8
      -0.000000264008  1  3  4  5  9 10
       0.000000000000  1  3  4  6  7  8
       0.000000000000  1  3  4  6  9 10
       0.000000000000  1  3  5  1  2  3
      -0.001033453562  1  3  5  1  2  4
       0.000000000000  1  3  5  1  2  5
       0.001784304399  1  3  5  1  2  6
       0.000000000000  1  3  5  1  3  4
      -0.000707922334  1  3  5  1  3  5
       0.000000000000  1  3  5  1  3  6
       0.000000000000  1  3  5  1  4  5
      -0.000021747924  1  3  5  1  4  6
       0.000000000000  1  3  5  1  5  6
       0.000000000000  1  3  5  1  7  8
       0.000000000000  1  3  5  1  9 10
      -0.000713097724  1  3  5  2  3  4
       0.000000000000  1  3  5  2  3  5
       0.000925409610  1  3  5  2  3  6
      -0.000221904991  1  3  5  2  4  5
       0.000000000000  1  3  5  2  4  6
       0.000129168981  1  3  5  2  5  6
      -0.000000696281  1  3  5  2  7  8
      -0.000000696281  1  3  5  2  9 10
       0.000000000000  1  3  5  3  4  5
       0.000002594642  1  3  5  3  4  6
       0.000000000000  1  3  5  3  5  6
       0.000000000000  1  3  5  3  7  8
       0.000000000000  1  3  5  3  9 10
      -0.000001944858  1  3  5  4  5  6
      -0.000000390493  1  3  5  4  7  8
      -0.000000390493  1  3  5  4  9 10
       0.000000000000  1  3  5  5  7  8
       0.000000000000  1  3  5  5  9 10
       0.000000469952  1  3  5  6  7  8
       0.000000469952  1  3  5  6  9 10
      -0.000957180610  1  3  6  1  2  3
       0.000000000000  1  3  6  1  2  4
       0.003462010797  1  3  6  1  2  5
       0.000000000000  1  3  6  1  2  6
      -0.000836555505  1  3  6  1  3  4
       0.000000000000  1  3  6  1  3  5
      -0.002620547354  1  3  6  1  3  6
      -0.000075566303  1  3  6  1  4  5
       0.000000000000  1  3  6  1  4  6
       0.000173224670  1  3  6  1  5  6
       0.000018711158  1  3  6  1  7  8
       0.000018711158  1  3  6  1  9 10
       0.000000000000  1  3  6  2  3  4
       0.001033228659  1  3  6  2  3  5
       0.000000000000  1  3  6  2  3  6
       0.000000000000  1  3  6  2  4  5
       0.000119945377  1  3  6  2  4  6
       0.000000000000  1  3  6  2  5  6
       0.000000000000  1  3  6  2  7  8
       0.000000000000  1  3  6  2  9 10
       0.000003726319  1  3  6  3  4  5
       0.000000000000  1  3  6  3  4  6
      -0.000000934113  1  3  6  3  5  6
      -0.000001989942  1  3  6  3  7  8
      -0.000001989942  1  3  6  3  9 10
       0.000000000000  1  3  6  4  5  6
       0.000000000000  1  3  6  4  7  8
       0.000000000000  1  3  6  4  9 10
       0.000000576401  1  3  6  5  7  8
       0.000000576401  1  3  6  5  9 10
       0.000000000000  1  3  6  6  7  8
       0.000000000000  1  3  6  6  9 10
       0.000175419789  1  4  5  1  2  3
       0.000000000000  1  4  5  1  2  4
      -0.000656341585  1  4  5  1  2  5
       0.000000000000  1  4  5  1  2  6
      -0.000045666748  1  4  5  1  3  4
       0.000000000000  1  4  5  1  3  5
      -0.000075566303  1  4  5  1  3  6
       0.000385901378  1  4  5  1  4  5
       0.000000000000  1  4  5  1  4  6
      -0.000158773565  1  4  5  1  5  6
       0.000002308300  1  4  5  1  7  8
       0.000002308300  1  4  5  1  9 10
       0.000000000000  1  4  5  2  3  4
      -0.000215278464  1  4  5  2  3  5
       0.000000000000  1  4  5  2  3  6
       0.000000000000  1  4  5  2  4  5
      -0.000190059598  1  4  5  2  4  6
       0.000000000000  1  4  5  2  5  6
       0.000000000000  1  4  5  2  7  8
       0.000000000000  1  4  5  2  9 10
      -0.000006275307  1  4  5  3  4  5
       0.000000000000  1  4  5  3  4  6
      -0.000005223476  1  4  5  3  5  6
      -0.000000132567  1  4  5  3  7  8
      -0.000000132567  1  4  5  3  9 10
       0.000000000000  1  4  5  4  5  6
       0.000000000000  1  4  5  4  7  8
       0.000000000000  1  4  5  4  9 10
       0.000000042835  1  4  5  5  7  8
       0.000000042835  1  4  5  5  9 10
       0.000000000000  1  4  5  6  7  8
       0.000000000000  1  4  5  6  9 10
       0.000000000000  1  4  6  1  2  3
       0.001258776581  1  4  6  1  2  4
       0.000000000000  1  4  6  1  2  5
      -0.000281556536  1  4  6  1  2  6
       0.000000000000  1  4  6  1  3  4
      -0.000021747924  1  4  6  1  3  5
       0.000000000000  1  4  6  1  3  6
       0.000000000000  1  4  6  1  4  5
       0.000374328655  1  4  6  1  4  6
       0.000000000000  1  4  6  1  5  6
       0.000000000000  1  4  6  1  7  8
       0.000000000000  1  4  6  1  9 10
       0.000186493322  1  4  6  2  3  4
       0.000000000000  1  4  6  2  3  5
       0.000118555766  1  4  6  2  3  6
      -0.000208081553  1  4  6  2  4  5
       0.000000000000  1  4  6  2  4  6
       0.000103257421  1  4  6  2  5  6
      -0.000002796607  1  4  6  2  7  8
      -0.000002796607  1  4  6  2  9 10
       0.000000000000  1  4  6  3  4  5
      -0.000000951083  1  4  6  3  4  6
       0.000000000000  1  4  6  3  5  6
       0.000000000000  1  4  6  3  7  8
       0.000000000000  1  4  6  3  9 10
      -0.000002956991  1  4  6  4  5  6
      -0.000000114016  1  4  6  4  7  8
      -0.000000114016  1  4  6  4  9 10
       0.000000000000  1  4  6  5  7  8
       0.000000000000  1  4  6  5  9 10
       0.000000751563  1  4  6  6  7  8
       0.000000751563  1  4  6  6  9 10
       0.001677665627  1  5  6  1  2  3
       0.000000000000  1  5  6  1  2  4
       0.000538222310  1  5  6  1  2  5
       0.000000000000  1  5  6  1  2  6
       0.000053788434  1  5  6  1  3  4
       0.000000000000  1  5  6  1  3  5
       0.000173224670  1  5  6  1  3  6
      -0.000158773565  1  5  6  1  4  5
       0.000000000000  1  5  6  1  4  6
       0.000318377761  1  5  6  1  5  6
      -0.000000684949  1  5  6  1  7  8
      -0.000000684949  1  5  6  1  9 10
       0.000000000000  1  5  6  2  3  4
       0.000132427824  1  5  6  2  3  5
       0.000000000000  1  5  6  2  3  6
       0.000000000000  1  5  6  2  4  5
       0.000087106003  1  5  6  2  4  6
       0.000000000000  1  5  6  2  5  6
       0.000000000000  1  5  6  2  7  8
       0.000000000000  1  5  6  2  9 10
      -0.000003272544  1  5  6  3  4  5
       0.000000000000  1  5  6  3  4  6
      -0.000014106934  1  5  6  3  5  6
       0.000000000000  1  5  6  3  7  8
       0.000000000000  1  5  6  3  9 10
       0.000000000000  1  5  6  4  5  6
       0.000000000000  1  5  6  4  7  8
       0.000000000000  1  5  6  4  9 10
      -0.000000117818  1  5  6  5  7  8
      -0.000000117818  1  5  6  5  9 10
       0.000000000000  1  5  6  6  7  8
       0.000000000000  1  5  6  6  9 10
       0.000621360101  1  7  8  1  2  3
       0.000000000000  1  7  8  1  2  4
      -0.000058912707  1  7  8  1  2  5
       0.000000000000  1  7  8  1  2  6
       0.000022077934  1  7  8  1  3  4
       0.000000000000  1  7  8  1  3  5
       0.000018711158  1  7  8  1  3  6
       0.000002308300  1  7  8  1  4  5
       0.000000000000  1  7  8  1  4  6
      -0.000000684949  1  7  8  1  5  6
       0.000198478772  1  7  8  1  7  8
       0.000000167982  1  7  8  1  9 10
       0.000000000000  1  7  8  2  3  4
      -0.000002957977  1  7  8  2  3  5
       0.000000000000  1  7  8  2  3  6
       0.000000000000  1  7  8  2  4  5
      -0.000000320142  1  7  8  2  4  6
       0.000000000000  1  7  8  2  5  6
       0.000000000000  1  7  8  2  7  8
       0.000000000000  1  7  8  2  9 10
       0.000000000000  1  7  8  3  4  5
       0.000000000000  1  7  8  3  4  6
      -0.000000102802  1  7  8  3  5  6
      -0.000010683793  1  7  8  3  7  8
       0.000000000000  1  7  8  3  9 10
       0.000000000000  1  7  8  4  5  6
       0.000000000000  1  7  8  4  7  8
       0.000000000000  1  7  8  4  9 10
       0.000001134702  1  7  8  5  7  8
       0.000000000000  1  7  8  5  9 10
       0.000000000000  1  7  8  6  7  8
       0.000000000000  1  7  8  6  9 10
       0.000621360101  1  9 10  1  2  3
       0.000000000000  1  9 10  1  2  4
      -0.000058912707  1  9 10  1  2  5
       0.000000000000  1  9 10  1  2  6
       0.000022077934  1  9 10  1  3  4
       0.000000000000  1  9 10  1  3  5
       0.000018711158  1  9 10  1  3  6
       0.000002308300  1  9 10  1  4  5
       0.000000000000  1  9 10  1  4  6
      -0.000000684949  1  9 10  1  5  6
       0.000000167982  1  9 10  1  7  8
       0.000198478772  1  9 10  1  9 10
       0.000000000000  1  9 10  2  3  4
      -0.000002957977  1  9 10  2  3  5
       0.000000000000  1  9 10  2  3  6
       0.000000000000  1  9 10  2  4  5
      -0.000000320142  1  9 10  2  4  6
       0.000000000000  1  9 10  2  5  6
       0.000000000000  1  9 10  2  7  8
       0.000000000000  1  9 10  2  9 10
       0.000000000000  1  9 10  3  4  5
       0.000000000000  1  9 10  3  4  6
      -0.000000102802  1  9 10  3  5  6
       0.000000000000  1  9 10  3  7  8
      -0.000010683793  1  9 10  3  9 10
       0.000000000000  1  9 10  4  5  6
       0.000000000000  1  9 10  4  7  8
       0.000000000000  1  9 10  4  9 10
       0.000000000000  1  9 10  5  7  8
       0.000001134702  1  9 10  5  9 10
       0.000000000000  1  9 10  6  7  8
       0.000000000000  1  9 10  6  9 10
       0.000000000000  2  3  4  1  2  3
       0.001266128273  2  3  4  1  2  4
       0.000000000000  2  3  4  1  2  5
       0.002186529775  2  3  4  1  2  6
       0.000000000000  2  3  4  1  3  4
      -0.000713097724  2  3  4  1  3  5
       0.000000000000  2  3  4  1  3  6
       0.000000000000  2  3  4  1  4  5
       0.000186493322  2  3  4  1  4  6
       0.000000000000  2  3  4  1  5  6
       0.000000000000  2  3  4  1  7  8
       0.000000000000  2  3  4  1  9 10
      -0.001889453221  2  3  4  2  3  4
       0.000000000000  2  3  4  2  3  5
      -0.000911937288  2  3  4  2  3  6
      -0.000046762694  2  3  4  2  4  5
       0.000000000000  2  3  4  2  4  6
       0.000053204052  2  3  4  2  5  6
       0.000018737062  2  3  4  2  7  8
       0.000018737062  2  3  4  2  9 10
       0.000000000000  2  3  4  3  4  5
      -0.000004233611  2  3  4  3  4  6
       0.000000000000  2  3  4  3  5  6
       0.000000000000  2  3  4  3  7  8
       0.000000000000  2  3  4  3  9 10
      -0.000004062357  2  3  4  4  5  6
      -0.000000157558  2  3  4  4  7  8
      -0.000000157558  2  3  4  4  9 10
       0.000000000000  2  3  4  5  7  8
       0.000000000000  2  3  4  5  9 10
       0.000000337158  2  3  4  6  7  8
       0.000000337158  2  3  4  6  9 10
       0.000301312693  2  3  5  1  2  3
       0.000000000000  2  3  5  1  2  4
      -0.003280011761  2  3  5  1  2  5
       0.000000000000  2  3  5  1  2  6
      -0.000775993679  2  3  5  1  3  4
       0.000000000000  2  3  5  1  3  5
       0.001033228659  2  3  5  1  3  6
      -0.000215278464  2  3  5  1  4  5
       0.000000000000  2  3  5  1  4  6
       0.000132427824  2  3  5  1  5  6
      -0.000002957977  2  3  5  1  7  8
      -0.000002957977  2  3  5  1  9 10
       0.000000000000  2  3  5  2  3  4
      -0.000823586621  2  3  5  2  3  5
       0.000000000000  2  3  5  2  3  6
       0.000000000000  2  3  5  2  4  5
      -0.000035781538  2  3  5  2  4  6
       0.000000000000  2  3  5  2  5  6
       0.000000000000  2  3  5  2  7  8
       0.000000000000  2  3  5  2  9 10
       0.000002852413  2  3  5  3  4  5
       0.000000000000  2  3  5  3  4  6
      -0.000004535675  2  3  5  3  5  6
       0.000000416592  2  3  5  3  7  8
       0.000000416592  2  3  5  3  9 10
       0.000000000000  2  3  5  4  5  6
       0.000000000000  2  3  5  4  7  8
       0.000000000000  2  3  5  4  9 10
      -0.000000341926  2  3  5  5  7  8
      -0.000000341926  2  3  5  5  9 10
       0.000000000000  2  3  5  6  7  8
       0.000000000000  2  3  5  6  9 10
       0.000000000000  2  3  6  1  2  3
       0.002604480355  2  3  6  1  2  4
       0.000000000000  2  3  6  1  2  5
      -0.001131997171  2  3  6  1  2  6
       0.000000000000  2  3  6  1  3  4
       0.000925409610  2  3  6  1  3  5
       0.000000000000  2  3  6  1  3  6
       0.000000000000  2  3  6  1  4  5
       0.000118555766  2  3  6  1  4  6
       0.000000000000  2  3  6  1  5  6
       0.000000000000  2  3  6  1  7  8
       0.000000000000  2  3  6  1  9 10
      -0.000911937288  2  3  6  2  3  4
       0.000000000000  2  3  6  2  3  5
      -0.002529482802  2  3  6  2  3  6
      -0.000089018967  2  3  6  2  4  5
       0.000000000000  2  3  6  2  4  6
       0.000181176879  2  3  6  2  5  6
       0.000016575175  2  3  6  2  7  8
       0.000016575175  2  3  6  2  9 10
       0.000000000000  2  3  6  3  4  5
       0.000011000033  2  3  6  3  4  6
       0.000000000000  2  3  6  3  5  6
       0.000000000000  2  3  6  3  7  8
       0.000000000000  2  3  6  3  9 10
      -0.000001216579  2  3  6  4  5  6
       0.000000165714  2  3  6  4  7  8
       0.000000165714  2  3  6  4  9 10
       0.000000000000  2  3  6  5  7  8
       0.000000000000  2  3  6  5  9 10
      -0.000000916683  2  3  6  6  7  8
      -0.000000916683  2  3  6  6  9 10
       0.000000000000  2  4  5  1  2  3
      -0.000897988125  2  4  5  1  2  4
       0.000000000000  2  4  5  1  2  5
       0.000421357928  2  4  5  1  2  6
       0.000000000000  2  4  5  1  3  4
      -0.000221904991  2  4  5  1  3  5
       0.000000000000  2  4  5  1  3  6
       0.000000000000  2  4  5  1  4  5
      -0.000208081553  2  4  5  1  4  6
       0.000000000000  2  4  5  1  5  6
       0.000000000000  2  4  5  1  7  8
       0.000000000000  2  4  5  1  9 10
      -0.000046762694  2  4  5  2  3  4
       0.000000000000  2  4  5  2  3  5
      -0.000089018967  2  4  5  2  3  6
       0.000397635851  2  4  5  2  4  5
       0.000000000000  2  4  5  2  4  6
      -0.000203853204  2  4  5  2  5  6
       0.000004005228  2  4  5  2  7  8
       0.000004005228  2  4  5  2  9 10
       0.000000000000  2  4  5  3  4  5
      -0.000010094646  2  4  5  3  4  6
       0.000000000000  2  4  5  3  5  6
       0.000000000000  2  4  5  3  7  8
       0.000000000000  2  4  5  3  9 10
       0.000005107289  2  4  5  4  5  6
       0.000000094812  2  4  5  4  7  8
       0.000000094812  2  4  5  4  9 10
       0.000000000000  2  4  5  5  7  8
       0.000000000000  2  4  5  5  9 10
      -0.000000299462  2  4  5  6  7  8
      -0.000000299462  2  4  5  6  9 10
       0.000417917558  2  4  6  1  2  3
       0.000000000000  2  4  6  1  2  4
       0.001033744156  2  4  6  1  2  5
       0.000000000000  2  4  6  1  2  6
       0.000188867553  2  4  6  1  3  4
       0.000000000000  2  4  6  1  3  5
       0.000119945377  2  4  6  1  3  6
      -0.000190059598  2  4  6  1  4  5
       0.000000000000  2  4  6  1  4  6
       0.000087106003  2  4  6  1  5  6
      -0.000000320142  2  4  6  1  7  8
      -0.000000320142  2  4  6  1  9 10
       0.000000000000  2  4  6  2  3  4
      -0.000035781538  2  4  6  2  3  5
       0.000000000000  2  4  6  2  3  6
       0.000000000000  2  4  6  2  4  5
       0.000373344088  2  4  6  2  4  6
       0.000000000000  2  4  6  2  5  6
       0.000000000000  2  4  6  2  7  8
       0.000000000000  2  4  6  2  9 10
      -0.000006023428  2  4  6  3  4  5
       0.000000000000  2  4  6  3  4  6
       0.000004546326  2  4  6  3  5  6
      -0.000000074934  2  4  6  3  7  8
      -0.000000074934  2  4  6  3  9 10
       0.000000000000  2  4  6  4  5  6
       0.000000000000  2  4  6  4  7  8
       0.000000000000  2  4  6  4  9 10
      -0.000000450367  2  4  6  5  7  8
      -0.000000450367  2  4  6  5  9 10
       0.000000000000  2  4  6  6  7  8
       0.000000000000  2  4  6  6  9 10
       0.000000000000  2  5  6  1  2  3
       0.000612382097  2  5  6  1  2  4
       0.000000000000  2  5  6  1  2  5
      -0.000224589704  2  5  6  1  2  6
       0.000000000000  2  5  6  1  3  4
       0.000129168981  2  5  6  1  3  5
       0.000000000000  2  5  6  1  3  6
       0.000000000000  2  5  6  1  4  5
       0.000103257421  2  5  6  1  4  6
       0.000000000000  2  5  6  1  5  6
       0.000000000000  2  5  6  1  7  8
       0.000000000000  2  5  6  1  9 10
       0.000053204052  2  5  6  2  3  4
       0.000000000000  2  5  6  2  3  5
       0.000181176879  2  5  6  2  3  6
      -0.000203853204  2  5  6  2  4  5
       0.000000000000  2  5  6  2  4  6
       0.000277896334  2  5  6  2  5  6
      -0.000003794066  2  5  6  2  7  8
      -0.000003794066  2  5  6  2  9 10
       0.000000000000  2  5  6  3  4  5
       0.000005796957  2  5  6  3  4  6
       0.000000000000  2  5  6  3  5  6
       0.000000000000  2  5  6  3  7  8
       0.000000000000  2  5  6  3  9 10
       0.000004113521  2  5  6  4  5  6
      -0.000000116290  2  5  6  4  7  8
      -0.000000116290  2  5  6  4  9 10
       0.000000000000  2  5  6  5  7  8
       0.000000000000  2  5  6  5  9 10
       0.000000388135  2  5  6  6  7  8
       0.000000388135  2  5  6  6  9 10
       0.000000000000  2  7  8  1  2  3
       0.000275153788  2  7  8  1  2  4
       0.000000000000  2  7  8  1  2  5
       0.000240665274  2  7  8  1  2  6
       0.000000000000  2  7  8  1  3  4
      -0.000000696281  2  7  8  1  3  5
       0.000000000000  2  7  8  1  3  6
       0.000000000000  2  7  8  1  4  5
      -0.000002796607  2  7  8  1  4  6
       0.000000000000  2  7  8  1  5  6
       0.000000000000  2  7  8  1  7  8
       0.000000000000  2  7  8  1  9 10
       0.000018737062  2  7  8  2  3  4
       0.000000000000  2  7  8  2  3  5
       0.000016575175  2  7  8  2  3  6
       0.000004005228  2  7  8  2  4  5
       0.000000000000  2  7  8  2  4  6
      -0.000003794066  2  7  8  2  5  6
       0.000137297323  2  7  8  2  7  8
      -0.000000288440  2  7  8  2  9 10
       0.000000000000  2  7  8  3  4  5
       0.000000084957  2  7  8  3  4  6
       0.000000000000  2  7  8  3  5  6
       0.000000000000  2  7  8  3  7  8
       0.000000000000  2  7  8  3  9 10
       0.000000000000  2  7  8  4  5  6
       0.000003947682  2  7  8  4  7  8
       0.000000000000  2  7  8  4  9 10
       0.000000000000  2  7  8  5  7  8
       0.000000000000  2  7  8  5  9 10
       0.000003574168  2  7  8  6  7  8
       0.000000000000  2  7  8  6  9 10
       0.000000000000  2  9 10  1  2  3
       0.000275153788  2  9 10  1  2  4
       0.000000000000  2  9 10  1  2  5
       0.000240665274  2  9 10  1  2  6
       0.000000000000  2  9 10  1  3  4
      -0.000000696281  2  9 10  1  3  5
       0.000000000000  2  9 10  1  3  6
       0.000000000000  2  9 10  1  4  5
      -0.000002796607  2  9 10  1  4  6
       0.000000000000  2  9 10  1  5  6
       0.000000000000  2  9 10  1  7  8
       0.000000000000  2  9 10  1  9 10
       0.000018737062  2  9 10  2  3  4
       0.000000000000  2  9 10  2  3  5
       0.000016575175  2  9 10  2  3  6
       0.000004005228  2  9 10  2  4  5
       0.000000000000  2  9 10  2  4  6
      -0.000003794066  2  9 10  2  5  6
      -0.000000288440  2  9 10  2  7  8
       0.000137297323  2  9 10  2  9 10
       0.000000000000  2  9 10  3  4  5
       0.000000084957  2  9 10  3  4  6
       0.000000000000  2  9 10  3  5  6
       0.000000000000  2  9 10  3  7  8
       0.000000000000  2  9 10  3  9 10
       0.000000000000  2  9 10  4  5  6
       0.000000000000  2  9 10  4  7  8
       0.000003947682  2  9 10  4  9 10
       0.000000000000  2  9 10  5  7  8
       0.000000000000  2  9 10  5  9 10
       0.000000000000  2  9 10  6  7  8
       0.000003574168  2  9 10  6  9 10
      -0.000062909638  3  4  5  1  2  3
       0.000000000000  3  4  5  1  2  4
      -0.000006649146  3  4  5  1  2  5
       0.000000000000  3  4  5  1  2  6
      -0.000003637584  3  4  5  1  3  4
       0.000000000000  3  4  5  1  3  5
       0.000003726319  3  4  5  1  3  6
      -0.000006275307  3  4  5  1  4  5
       0.000000000000  3  4  5  1  4  6
      -0.000003272544  3  4  5  1  5  6
       0.000000000000  3  4  5  1  7  8
       0.000000000000  3  4  5  1  9 10
       0.000000000000  3  4  5  2  3  4
       0.000002852413  3  4  5  2  3  5
       0.000000000000  3  4  5  2  3  6
       0.000000000000  3  4  5  2  4  5
      -0.000006023428  3  4  5  2  4  6
       0.000000000000  3  4  5  2  5  6
       0.000000000000  3  4  5  2  7  8
       0.000000000000  3  4  5  2  9 10
       0.000003080120  3  4  5  3  4  5
       0.000000000000  3  4  5  3  4  6
       0.000001119811  3  4  5  3  5  6
       0.000000000000  3  4  5  3  7  8
       0.000000000000  3  4  5  3  9 10
       0.000000000000  3  4  5  4  5  6
       0.000000000000  3  4  5  4  7  8
       0.000000000000  3  4  5  4  9 10
       0.000000000000  3  4  5  5  7  8
       0.000000000000  3  4  5  5  9 10
       0.000000000000  3  4  5  6  7  8
       0.000000000000  3  4  5  6  9 10
       0.000000000000  3  4  6  1  2  3
       0.000002357567  3  4  6  1  2  4
       0.000000000000  3  4  6  1  2  5
       0.000001411379  3  4  6  1  2  6
       0.000000000000  3  4  6  1  3  4
       0.000002594642  3  4  6  1  3  5
       0.000000000000  3  4  6  1  3  6
       0.000000000000  3  4  6  1  4  5
      -0.000000951083  3  4  6  1  4  6
       0.000000000000  3  4  6  1  5  6
       0.000000000000  3  4  6  1  7  8
       0.000000000000  3  4  6  1  9 10
      -0.000004233611  3  4  6  2  3  4
       0.000000000000  3  4  6  2  3  5
       0.000011000033  3  4  6  2  3  6
      -0.000010094646  3  4  6  2  4  5
       0.000000000000  3  4  6  2  4  6
       0.000005796957  3  4  6  2  5  6
       0.000000084957  3  4  6  2  7  8
       0.000000084957  3  4  6  2  9 10
       0.000000000000  3  4  6  3  4  5
       0.000008922982  3  4  6  3  4  6
       0.000000000000  3  4  6  3  5  6
       0.000000000000  3  4  6  3  7  8
       0.000000000000  3  4  6  3  9 10
       0.000000850224  3  4  6  4  5  6
       0.000000032953  3  4  6  4  7  8
       0.000000032953  3  4  6  4  9 10
       0.000000000000  3  4  6  5  7  8
       0.000000000000  3  4  6  5  9 10
      -0.000000068920  3  4  6  6  7  8
      -0.000000068920  3  4  6  6  9 10
      -0.000107837465  3  5  6  1  2  3
       0.000000000000  3  5  6  1  2  4
      -0.000003261003  3  5  6  1  2  5
       0.000000000000  3  5  6  1  2  6
      -0.000001137328  3  5  6  1  3  4
       0.000000000000  3  5  6  1  3  5
      -0.000000934113  3  5  6  1  3  6
      -0.000005223476  3  5  6  1  4  5
       0.000000000000  3  5  6  1  4  6
      -0.000014106934  3  5  6  1  5  6
      -0.000000102802  3  5  6  1  7  8
      -0.000000102802  3  5  6  1  9 10
       0.000000000000  3  5  6  2  3  4
      -0.000004535675  3  5  6  2  3  5
       0.000000000000  3  5  6  2  3  6
       0.000000000000  3  5  6  2  4  5
       0.000004546326  3  5  6  2  4  6
       0.000000000000  3  5  6  2  5  6
       0.000000000000  3  5  6  2  7  8
       0.000000000000  3  5  6  2  9 10
       0.000001119811  3  5  6  3  4  5
       0.000000000000  3  5  6  3  4  6
       0.000005373708  3  5  6  3  5  6
       0.000000000000  3  5  6  3  7  8
       0.000000000000  3  5  6  3  9 10
       0.000000000000  3  5  6  4  5  6
       0.000000000000  3  5  6  4  7  8
       0.000000000000  3  5  6  4  9 10
       0.000000000000  3  5  6  5  7  8
       0.000000000000  3  5  6  5  9 10
       0.000000000000  3  5  6  6  7  8
       0.000000000000  3  5  6  6  9 10
      -0.000059359663  3  7  8  1  2  3
       0.000000000000  3  7  8  1  2  4
       0.000004735589  3  7  8  1  2  5
       0.000000000000  3  7  8  1  2  6
      -0.000002503902  3  7  8  1  3  4
       0.000000000000  3  7  8  1  3  5
      -0.000001989942  3  7  8  1  3  6
      -0.000000132567  3  7  8  1  4  5
       0.000000000000  3  7  8  1  4  6
       0.000000000000  3  7  8  1  5  6
      -0.000010683793  3  7  8  1  7  8
       0.000000000000  3  7  8  1  9 10
       0.000000000000  3  7  8  2  3  4
       0.000000416592  3  7  8  2  3  5
       0.000000000000  3  7  8  2  3  6
       0.000000000000  3  7  8  2  4  5
      -0.000000074934  3  7  8  2  4  6
       0.000000000000  3  7  8  2  5  6
       0.000000000000  3  7  8  2  7  8
       0.000000000000  3  7  8  2  9 10
       0.000000000000  3  7  8  3  4  5
       0.000000000000  3  7  8  3  4  6
       0.000000000000  3  7  8  3  5  6
       0.000002916575  3  7  8  3  7  8
       0.000000000000  3  7  8  3  9 10
       0.000000000000  3  7  8  4  5  6
       0.000000000000  3  7  8  4  7  8
       0.000000000000  3  7  8  4  9 10
      -0.000000141726  3  7  8  5  7  8
       0.000000000000  3  7  8  5  9 10
       0.000000000000  3  7  8  6  7  8
       0.000000000000  3  7  8  6  9 10
      -0.000059359663  3  9 10  1  2  3
       0.000000000000  3  9 10  1  2  4
       0.000004735589  3  9 10  1  2  5
       0.000000000000  3  9 10  1  2  6
      -0.000002503902  3  9 10  1  3  4
       0.000000000000  3  9 10  1  3  5
      -0.000001989942  3  9 10  1  3  6
      -0.000000132567  3  9 10  1  4  5
       0.000000000000  3  9 10  1  4  6
       0.000000000000  3  9 10  1  5  6
       0.000000000000  3  9 10  1  7  8
      -0.000010683793  3  9 10  1  9 10
       0.000000000000  3  9 10  2  3  4
       0.000000416592  3  9 10  2  3  5
       0.000000000000  3  9 10  2  3  6
       0.000000000000  3  9 10  2  4  5
      -0.000000074934  3  9 10  2  4  6
       0.000000000000  3  9 10  2  5  6
       0.000000000000  3  9 10  2  7  8
       0.000000000000  3  9 10  2  9 10
       0.000000000000  3  9 10  3  4  5
       0.000000000000  3  9 10  3  4  6
       0.000000000000  3  9 10  3  5  6
       0.000000000000  3  9 10  3  7  8
       0.000002916575  3  9 10  3  9 10
       0.000000000000  3  9 10  4  5  6
       0.000000000000  3  9 10  4  7  8
       0.000000000000  3  9 10  4  9 10
       0.000000000000  3  9 10  5  7  8
      -0.000000141726  3  9 10  5  9 10
       0.000000000000  3  9 10  6  7  8
       0.000000000000  3  9 10  6  9 10
       0.000000000000  4  5  6  1  2  3
       0.000018019910  4  5  6  1  2  4
       0.000000000000  4  5  6  1  2  5
       0.000016157830  4  5  6  1  2  6
       0.000000000000  4  5  6  1  3  4
      -0.000001944858  4  5  6  1  3  5
       0.000000000000  4  5  6  1  3  6
       0.000000000000  4  5  6  1  4  5
      -0.000002956991  4  5  6  1  4  6
       0.000000000000  4  5  6  1  5  6
       0.000000000000  4  5  6  1  7  8
       0.000000000000  4  5  6  1  9 10
      -0.000004062357  4  5  6  2  3  4
       0.000000000000  4  5  6  2  3  5
      -0.000001216579  4  5  6  2  3  6
       0.000005107289  4  5  6  2  4  5
       0.000000000000  4  5  6  2  4  6
       0.000004113521  4  5  6  2  5  6
       0.000000000000  4  5  6  2  7  8
       0.000000000000  4  5  6  2  9 10
       0.000000000000  4  5  6  3  4  5
       0.000000850224  4  5  6  3  4  6
       0.000000000000  4  5  6  3  5  6
       0.000000000000  4  5  6  3  7  8
       0.000000000000  4  5  6  3  9 10
      -0.000002543855  4  5  6  4  5  6
       0.000000000000  4  5  6  4  7  8
       0.000000000000  4  5  6  4  9 10
       0.000000000000  4  5  6  5  7  8
       0.000000000000  4  5  6  5  9 10
       0.000000000000  4  5  6  6  7  8
       0.000000000000  4  5  6  6  9 10
       0.000000000000  4  7  8  1  2  3
       0.000011751857  4  7  8  1  2  4
       0.000000000000  4  7  8  1  2  5
       0.000006372386  4  7  8  1  2  6
       0.000000000000  4  7  8  1  3  4
      -0.000000390493  4  7  8  1  3  5
       0.000000000000  4  7  8  1  3  6
       0.000000000000  4  7  8  1  4  5
      -0.000000114016  4  7  8  1  4  6
       0.000000000000  4  7  8  1  5  6
       0.000000000000  4  7  8  1  7  8
       0.000000000000  4  7  8  1  9 10
      -0.000000157558  4  7  8  2  3  4
       0.000000000000  4  7  8  2  3  5
       0.000000165714  4  7  8  2  3  6
       0.000000094812  4  7  8  2  4  5
       0.000000000000  4  7  8  2  4  6
      -0.000000116290  4  7  8  2  5  6
       0.000003947682  4  7  8  2  7  8
       0.000000000000  4  7  8  2  9 10
       0.000000000000  4  7  8  3  4  5
       0.000000032953  4  7  8  3  4  6
       0.000000000000  4  7  8  3  5  6
       0.000000000000  4  7  8  3  7  8
       0.000000000000  4  7  8  3  9 10
       0.000000000000  4  7  8  4  5  6
      -0.000001571633  4  7  8  4  7  8
       0.000000000000  4  7  8  4  9 10
       0.000000000000  4  7  8  5  7  8
       0.000000000000  4  7  8  5  9 10
      -0.000000786377  4  7  8  6  7  8
       0.000000000000  4  7  8  6  9 10
       0.000000000000  4  9 10  1  2  3
       0.000011751857  4  9 10  1  2  4
       0.000000000000  4  9 10  1  2  5
       0.000006372386  4  9 10  1  2  6
       0.000000000000  4  9 10  1  3  4
      -0.000000390493  4  9 10  1  3  5
       0.000000000000  4  9 10  1  3  6
       0.000000000000  4  9 10  1  4  5
      -0.000000114016  4  9 10  1  4  6
       0.000000000000  4  9 10  1  5  6
       0.000000000000  4  9 10  1  7  8
       0.000000000000  4  9 10  1  9 10
      -0.000000157558  4  9 10  2  3  4
       0.000000000000  4  9 10  2  3  5
       0.000000165714  4  9 10  2  3  6
       0.000000094812  4  9 10  2  4  5
       0.000000000000  4  9 10  2  4  6
      -0.000000116290  4  9 10  2  5  6
       0.000000000000  4  9 10  2  7  8
       0.000003947682  4  9 10  2  9 10
       0.000000000000  4  9 10  3  4  5
       0.000000032953  4  9 10  3  4  6
       0.000000000000  4  9 10  3  5  6
       0.000000000000  4  9 10  3  7  8
       0.000000000000  4  9 10  3  9 10
       0.000000000000  4  9 10  4  5  6
       0.000000000000  4  9 10  4  7  8
      -0.000001571633  4  9 10  4  9 10
       0.000000000000  4  9 10  5  7  8
       0.000000000000  4  9 10  5  9 10
       0.000000000000  4  9 10  6  7  8
      -0.000000786377  4  9 10  6  9 10
       0.000002489076  5  7  8  1  2  3
       0.000000000000  5  7  8  1  2  4
       0.000002824579  5  7  8  1  2  5
       0.000000000000  5  7  8  1  2  6
      -0.000000264008  5  7  8  1  3  4
       0.000000000000  5  7  8  1  3  5
       0.000000576401  5  7  8  1  3  6
       0.000000042835  5  7  8  1  4  5
       0.000000000000  5  7  8  1  4  6
      -0.000000117818  5  7  8  1  5  6
       0.000001134702  5  7  8  1  7  8
       0.000000000000  5  7  8  1  9 10
       0.000000000000  5  7  8  2  3  4
      -0.000000341926  5  7  8  2  3  5
       0.000000000000  5  7  8  2  3  6
       0.000000000000  5  7  8  2  4  5
      -0.000000450367  5  7  8  2  4  6
       0.000000000000  5  7  8  2  5  6
       0.000000000000  5  7  8  2  7  8
       0.000000000000  5  7  8  2  9 10
       0.000000000000  5  7  8  3  4  5
       0.000000000000  5  7  8  3  4  6
       0.000000000000  5  7  8  3  5  6
      -0.000000141726  5  7  8  3  7  8
       0.000000000000  5  7  8  3  9 10
       0.000000000000  5  7  8  4  5  6
       0.000000000000  5  7  8  4  7  8
       0.000000000000  5  7  8  4  9 10
      -0.000000604768  5  7  8  5  7  8
       0.000000000000  5  7  8  5  9 10
       0.000000000000  5  7  8  6  7  8
       0.000000000000  5  7  8  6  9 10
       0.000002489076  5  9 10  1  2  3
       0.000000000000  5  9 10  1  2  4
       0.000002824579  5  9 10  1  2  5
       0.000000000000  5  9 10  1  2  6
      -0.000000264008  5  9 10  1  3  4
       0.000000000000  5  9 10  1  3  5
       0.000000576401  5  9 10  1  3  6
       0.000000042835  5  9 10  1  4  5
       0.000000000000  5  9 10  1  4  6
      -0.000000117818  5  9 10  1  5  6
       0.000000000000  5  9 10  1  7  8
       0.000001134702  5  9 10  1  9 10
       0.000000000000  5  9 10  2  3  4
      -0.000000341926  5  9 10  2  3  5
       0.000000000000  5  9 10  2  3  6
       0.000000000000  5  9 10  2  4  5
      -0.000000450367  5  9 10  2  4  6
       0.000000000000  5  9 10  2  5  6
       0.000000000000  5  9 10  2  7  8
       0.000000000000  5  9 10  2  9 10
       0.000000000000  5  9 10  3  4  5
       0.000000000000  5  9 10  3  4  6
       0.000000000000  5  9 10  3  5  6
       0.000000000000  5  9 10  3  7  8
      -0.000000141726  5  9 10  3  9 10
       0.000000000000  5  9 10  4  5  6
       0.000000000000  5  9 10  4  7  8
       0.000000000000  5  9 10  4  9 10
       0.000000000000  5  9 10  5  7  8
      -0.000000604768  5  9 10  5  9 10
       0.000000000000  5  9 10  6  7  8
       0.000000000000  5  9 10  6  9 10
       0.000000000000  6  7  8  1  2  3
       0.000008885780  6  7  8  1  2  4
       0.000000000000  6  7  8  1  2  5
       0.000002129129  6  7  8  1  2  6
       0.000000000000  6  7  8  1  3  4
       0.000000469952  6  7  8  1  3  5
       0.000000000000  6  7  8  1  3  6
       0.000000000000  6  7  8  1  4  5
       0.000000751563  6  7  8  1  4  6
       0.000000000000  6  7  8  1  5  6
       0.000000000000  6  7  8  1  7  8
       0.000000000000  6  7  8  1  9 10
       0.000000337158  6  7  8  2  3  4
       0.000000000000  6  7  8  2  3  5
      -0.000000916683  6  7  8  2  3  6
      -0.000000299462  6  7  8  2  4  5
       0.000000000000  6  7  8  2  4  6
       0.000000388135  6  7  8  2  5  6
       0.000003574168  6  7  8  2  7  8
       0.000000000000  6  7  8  2  9 10
       0.000000000000  6  7  8  3  4  5
      -0.000000068920  6  7  8  3  4  6
       0.000000000000  6  7  8  3  5  6
       0.000000000000  6  7  8  3  7  8
       0.000000000000  6  7  8  3  9 10
       0.000000000000  6  7  8  4  5  6
      -0.000000786377  6  7  8  4  7  8
       0.000000000000  6  7  8  4  9 10
       0.000000000000  6  7  8  5  7  8
       0.000000000000  6  7  8  5  9 10
      -0.000001194504  6  7  8  6  7  8
       0.000000000000  6  7  8  6  9 10
       0.000000000000  6  9 10  1  2  3
       0.000008885780  6  9 10  1  2  4
       0.000000000000  6  9 10  1  2  5
       0.000002129129  6  9 10  1  2  6
       0.000000000000  6  9 10  1  3  4
       0.000000469952  6  9 10  1  3  5
       0.000000000000  6  9 10  1  3  6
       0.000000000000  6  9 10  1  4  5
       0.000000751563  6  9 10  1  4  6
       0.000000000000  6  9 10  1  5  6
       0.000000000000  6  9 10  1  7  8
       0.000000000000  6  9 10  1  9 10
       0.000000337158  6  9 10  2  3  4
       0.000000000000  6  9 10  2  3  5
      -0.000000916683  6  9 10  2  3  6
      -0.000000299462  6  9 10  2  4  5
       0.000000000000  6  9 10  2  4  6
       0.000000388135  6  9 10  2  5  6
       0.000000000000  6  9 10  2  7  8
       0.000003574168  6  9 10  2  9 10
       0.000000000000  6  9 10  3  4  5
      -0.000000068920  6  9 10  3  4  6
       0.000000000000  6  9 10  3  5  6
       0.000000000000  6  9 10  3  7  8
       0.000000000000  6  9 10  3  9 10
       0.000000000000  6  9 10  4  5  6
       0.000000000000  6  9 10  4  7  8
      -0.000000786377  6  9 10  4  9 10
       0.000000000000  6  9 10  5  7  8
       0.000000000000  6  9 10  5  9 10
       0.000000000000  6  9 10  6  7  8
      -0.000001194504  6  9 10  6  9 10
      -0.162076908175  1  2  7  1  2  7
       0.000000000000  1  2  7  1  2  8
       0.000000000000  1  2  7  1  3  7
       0.002812552948  1  2  7  1  3  8
      -0.000584801352  1  2  7  1  4  7
       0.000000000000  1  2  7  1  4  8
       0.000000000000  1  2  7  1  5  7
      -0.000209998717  1  2  7  1  5  8
      -0.000943644926  1  2  7  1  6  7
       0.000000000000  1  2  7  1  6  8
      -0.002684043211  1  2  7  2  3  7
       0.000000000000  1  2  7  2  3  8
       0.000000000000  1  2  7  2  4  7
       0.000943044865  1  2  7  2  4  8
       0.000528918689  1  2  7  2  5  7
       0.000000000000  1  2  7  2  5  8
       0.000000000000  1  2  7  2  6  7
       0.000710093665  1  2  7  2  6  8
      -0.000008075958  1  2  7  3  4  7
       0.000000000000  1  2  7  3  4  8
       0.000000000000  1  2  7  3  5  7
      -0.000003639243  1  2  7  3  5  8
       0.000002214145  1  2  7  3  6  7
       0.000000000000  1  2  7  3  6  8
       0.000011572069  1  2  7  4  5  7
       0.000000000000  1  2  7  4  5  8
       0.000000000000  1  2  7  4  6  7
      -0.000006236340  1  2  7  4  6  8
       0.000012438888  1  2  7  5  6  7
       0.000000000000  1  2  7  5  6  8
       0.000008061758  1  2  7  7  9 10
       0.000000000000  1  2  7  8  9 10
       0.000000000000  1  2  8  1  2  7
      -0.000961034558  1  2  8  1  2  8
       0.002191209367  1  2  8  1  3  7
       0.000000000000  1  2  8  1  3  8
       0.000000000000  1  2  8  1  4  7
      -0.000638556063  1  2  8  1  4  8
      -0.000151023267  1  2  8  1  5  7
       0.000000000000  1  2  8  1  5  8
       0.000000000000  1  2  8  1  6  7
      -0.000222409439  1  2  8  1  6  8
       0.000000000000  1  2  8  2  3  7
      -0.002743533917  1  2  8  2  3  8
       0.000667915424  1  2  8  2  4  7
       0.000000000000  1  2  8  2  4  8
       0.000000000000  1  2  8  2  5  7
      -0.000014699477  1  2  8  2  5  8
       0.000469513902  1  2  8  2  6  7
       0.000000000000  1  2  8  2  6  8
       0.000000000000  1  2  8  3  4  7
      -0.000005062869  1  2  8  3  4  8
      -0.000005890167  1  2  8  3  5  7
       0.000000000000  1  2  8  3  5  8
       0.000000000000  1  2  8  3  6  7
       0.000007328399  1  2  8  3  6  8
       0.000000000000  1  2  8  4  5  7
       0.000000951388  1  2  8  4  5  8
      -0.000003752794  1  2  8  4  6  7
       0.000000000000  1  2  8  4  6  8
       0.000000000000  1  2  8  5  6  7
      -0.000005274736  1  2  8  5  6  8
       0.000000000000  1  2  8  7  9 10
      -0.000003341932  1  2  8  8  9 10
       0.000000000000  1  3  7  1  2  7
       0.002191209367  1  3  7  1  2  8
      -0.000327391140  1  3  7  1  3  7
       0.000000000000  1  3  7  1  3  8
       0.000000000000  1  3  7  1  4  7
      -0.000020384523  1  3  7  1  4  8
       0.000004176903  1  3  7  1  5  7
       0.000000000000  1  3  7  1  5  8
       0.000000000000  1  3  7  1  6  7
      -0.000015811249  1  3  7  1  6  8
       0.000000000000  1  3  7  2  3  7
       0.000930709593  1  3  7  2  3  8
      -0.000360974225  1  3  7  2  4  7
       0.000000000000  1  3  7  2  4  8
       0.000000000000  1  3  7  2  5  7
      -0.000049674344  1  3  7  2  5  8
      -0.000323509242  1  3  7  2  6  7
       0.000000000000  1  3  7  2  6  8
       0.000000000000  1  3  7  3  4  7
       0.000002149120  1  3  7  3  4  8
      -0.000000749201  1  3  7  3  5  7
       0.000000000000  1  3  7  3  5  8
       0.000000000000  1  3  7  3  6  7
       0.000001716720  1  3  7  3  6  8
       0.000000000000  1  3  7  4  5  7
       0.000000264748  1  3  7  4  5  8
       0.000001390968  1  3  7  4  6  7
       0.000000000000  1  3  7  4  6  8
       0.000000000000  1  3  7  5  6  7
       0.000001120209  1  3  7  5  6  8
       0.000000000000  1  3  7  7  9 10
       0.000000463291  1  3  7  8  9 10
       0.002812552948  1  3  8  1  2  7
       0.000000000000  1  3  8  1  2  8
       0.000000000000  1  3  8  1  3  7
      -0.001174801347  1  3  8  1  3  8
      -0.000042441299  1  3  8  1  4  7
       0.000000000000  1  3  8  1  4  8
       0.000000000000  1  3  8  1  5  7
       0.000056276616  1  3  8  1  5  8
      -0.000034516594  1  3  8  1  6  7
       0.000000000000  1  3  8  1  6  8
       0.000989992621  1  3  8  2  3  7
       0.000000000000  1  3  8  2  3  8
       0.000000000000  1  3  8  2  4  7
       0.000044186927  1  3  8  2  4  8
      -0.000051457674  1  3  8  2  5  7
       0.000000000000  1  3  8  2  5  8
       0.000000000000  1  3  8  2  6  7
       0.000041923098  1  3  8  2  6  8
       0.000004639451  1  3  8  3  4  7
       0.000000000000  1  3  8  3  4  8
       0.000000000000  1  3  8  3  5  7
       0.000001652468  1  3  8  3  5  8
       0.000003700503  1  3  8  3  6  7
       0.000000000000  1  3  8  3  6  8
       0.000000387967  1  3  8  4  5  7
       0.000000000000  1  3  8  4  5  8
       0.000000000000  1  3  8  4  6  7
      -0.000000646431  1  3  8  4  6  8
       0.000001008662  1  3  8  5  6  7
       0.000000000000  1  3  8  5  6  8
       0.000000467055  1  3  8  7  9 10
       0.000000000000  1  3  8  8  9 10
      -0.000584801352  1  4  7  1  2  7
       0.000000000000  1  4  7  1  2  8
       0.000000000000  1  4  7  1  3  7
      -0.000042441299  1  4  7  1  3  8
       0.000529566023  1  4  7  1  4  7
       0.000000000000  1  4  7  1  4  8
       0.000000000000  1  4  7  1  5  7
       0.000005739301  1  4  7  1  5  8
       0.000238339110  1  4  7  1  6  7
       0.000000000000  1  4  7  1  6  8
      -0.000352912958  1  4  7  2  3  7
       0.000000000000  1  4  7  2  3  8
       0.000000000000  1  4  7  2  4  7
      -0.000158086184  1  4  7  2  4  8
       0.000134384136  1  4  7  2  5  7
       0.000000000000  1  4  7  2  5  8
       0.000000000000  1  4  7  2  6  7
      -0.000069551434  1  4  7  2  6  8
      -0.000003664207  1  4  7  3  4  7
       0.000000000000  1  4  7  3  4  8
       0.000000000000  1  4  7  3  5  7
      -0.000002986918  1  4  7  3  5  8
       0.000002208115  1  4  7  3  6  7
       0.000000000000  1  4  7  3  6  8
      -0.000002250855  1  4  7  4  5  7
       0.000000000000  1  4  7  4  5  8
       0.000000000000  1  4  7  4  6  7
       0.000000821534  1  4  7  4  6  8
      -0.000000298616  1  4  7  5  6  7
       0.000000000000  1  4  7  5  6  8
      -0.000000238743  1  4  7  7  9 10
       0.000000000000  1  4  7  8  9 10
       0.000000000000  1  4  8  1  2  7
      -0.000638556063  1  4  8  1  2  8
      -0.000020384523  1  4  8  1  3  7
       0.000000000000  1  4  8  1  3  8
       0.000000000000  1  4  8  1  4  7
       0.000186817016  1  4  8  1  4  8
       0.000003453268  1  4  8  1  5  7
       0.000000000000  1  4  8  1  5  8
       0.000000000000  1  4  8  1  6  7
       0.000062900927  1  4  8  1  6  8
       0.000000000000  1  4  8  2  3  7
       0.000049204449  1  4  8  2  3  8
      -0.000169802326  1  4  8  2  4  7
       0.000000000000  1  4  8  2  4  8
       0.000000000000  1  4  8  2  5  7
       0.000005718268  1  4  8  2  5  8
      -0.000075672503  1  4  8  2  6  7
       0.000000000000  1  4  8  2  6  8
       0.000000000000  1  4  8  3  4  7
      -0.000003906185  1  4  8  3  4  8
      -0.000002577384  1  4  8  3  5  7
       0.000000000000  1  4  8  3  5  8
       0.000000000000  1  4  8  3  6  7
       0.000000282503  1  4  8  3  6  8
       0.000000000000  1  4  8  4  5  7
      -0.000000457577  1  4  8  4  5  8
       0.000000944996  1  4  8  4  6  7
       0.000000000000  1  4  8  4  6  8
       0.000000000000  1  4  8  5  6  7
       0.000000705478  1  4  8  5  6  8
       0.000000000000  1  4  8  7  9 10
       0.000000477750  1  4  8  8  9 10
       0.000000000000  1  5  7  1  2  7
      -0.000151023267  1  5  7  1  2  8
       0.000004176903  1  5  7  1  3  7
       0.000000000000  1  5  7  1  3  8
       0.000000000000  1  5  7  1  4  7
       0.000003453268  1  5  7  1  4  8
       0.000219244476  1  5  7  1  5  7
       0.000000000000  1  5  7  1  5  8
       0.000000000000  1  5  7  1  6  7
      -0.000009700007  1  5  7  1  6  8
       0.000000000000  1  5  7  2  3  7
      -0.000043060525  1  5  7  2  3  8
       0.000122782981  1  5  7  2  4  7
       0.000000000000  1  5  7  2  4  8
       0.000000000000  1  5  7  2  5  7
      -0.000079996760  1  5  7  2  5  8
      -0.000128789265  1  5  7  2  6  7
       0.000000000000  1  5  7  2  6  8
       0.000000000000  1  5  7  3  4  7
      -0.000003230158  1  5  7  3  4  8
      -0.000004721895  1  5  7  3  5  7
       0.000000000000  1  5  7  3  5  8
       0.000000000000  1  5  7  3  6  7
       0.000005938935  1  5  7  3  6  8
       0.000000000000  1  5  7  4  5  7
       0.000000042315  1  5  7  4  5  8
      -0.000001019840  1  5  7  4  6  7
       0.000000000000  1  5  7  4  6  8
       0.000000000000  1  5  7  5  6  7
      -0.000000326828  1  5  7  5  6  8
       0.000000000000  1  5  7  7  9 10
      -0.000000042164  1  5  7  8  9 10
      -0.000209998717  1  5  8  1  2  7
       0.000000000000  1  5  8  1  2  8
       0.000000000000  1  5  8  1  3  7
       0.000056276616  1  5  8  1  3  8
       0.000005739301  1  5  8  1  4  7
       0.000000000000  1  5  8  1  4  8
       0.000000000000  1  5  8  1  5  7
       0.000115036302  1  5  8  1  5  8
      -0.000009018392  1  5  8  1  6  7
       0.000000000000  1  5  8  1  6  8
      -0.000048527344  1  5  8  2  3  7
       0.000000000000  1  5  8  2  3  8
       0.000000000000  1  5  8  2  4  7
       0.000004804996  1  5  8  2  4  8
      -0.000082835890  1  5  8  2  5  7
       0.000000000000  1  5  8  2  5  8
       0.000000000000  1  5  8  2  6  7
      -0.000000728345  1  5  8  2  6  8
      -0.000002972981  1  5  8  3  4  7
       0.000000000000  1  5  8  3  4  8
       0.000000000000  1  5  8  3  5  7
      -0.000006863452  1  5  8  3  5  8
       0.000005483042  1  5  8  3  6  7
       0.000000000000  1  5  8  3  6  8
       0.000000000000  1  5  8  4  5  7
       0.000000000000  1  5  8  4  5  8
       0.000000000000  1  5  8  4  6  7
       0.000000562282  1  5  8  4  6  8
      -0.000000206884  1  5  8  5  6  7
       0.000000000000  1  5  8  5  6  8
      -0.000000042117  1  5  8  7  9 10
       0.000000000000  1  5  8  8  9 10
      -0.000943644926  1  6  7  1  2  7
       0.000000000000  1  6  7  1  2  8
       0.000000000000  1  6  7  1  3  7
      -0.000034516594  1  6  7  1  3  8
       0.000238339110  1  6  7  1  4  7
       0.000000000000  1  6  7  1  4  8
       0.000000000000  1  6  7  1  5  7
      -0.000009018392  1  6  7  1  5  8
       0.000495207879  1  6  7  1  6  7
       0.000000000000  1  6  7  1  6  8
      -0.000325768686  1  6  7  2  3  7
       0.000000000000  1  6  7  2  3  8
       0.000000000000  1  6  7  2  4  7
      -0.000063012207  1  6  7  2  4  8
      -0.000141215632  1  6  7  2  5  7
       0.000000000000  1  6  7  2  5  8
       0.000000000000  1  6  7  2  6  7
      -0.000041343302  1  6  7  2  6  8
       0.000000791385  1  6  7  3  4  7
       0.000000000000  1  6  7  3  4  8
       0.000000000000  1  6  7  3  5  7
       0.000004923980  1  6  7  3  5  8
      -0.000006078537  1  6  7  3  6  7
       0.000000000000  1  6  7  3  6  8
      -0.000000702112  1  6  7  4  5  7
       0.000000000000  1  6  7  4  5  8
       0.000000000000  1  6  7  4  6  7
       0.000001896629  1  6  7  4  6  8
       0.000001805669  1  6  7  5  6  7
       0.000000000000  1  6  7  5  6  8
      -0.000000173059  1  6  7  7  9 10
       0.000000000000  1  6  7  8  9 10
       0.000000000000  1  6  8  1  2  7
      -0.000222409439  1  6  8  1  2  8
      -0.000015811249  1  6  8  1  3  7
       0.000000000000  1  6  8  1  3  8
       0.000000000000  1  6  8  1  4  7
       0.000062900927  1  6  8  1  4  8
      -0.000009700007  1  6  8  1  5  7
       0.000000000000  1  6  8  1  5  8
       0.000000000000  1  6  8  1  6  7
       0.000038391819  1  6  8  1  6  8
       0.000000000000  1  6  8  2  3  7
       0.000034547617  1  6  8  2  3  8
      -0.000072189715  1  6  8  2  4  7
       0.000000000000  1  6  8  2  4  8
       0.000000000000  1  6  8  2  5  7
       0.000004545909  1  6  8  2  5  8
      -0.000043476884  1  6  8  2  6  7
       0.000000000000  1  6  8  2  6  8
       0.000000000000  1  6  8  3  4  7
       0.000000867552  1  6  8  3  4  8
       0.000004328212  1  6  8  3  5  7
       0.000000000000  1  6  8  3  5  8
       0.000000000000  1  6  8  3  6  7
      -0.000008925230  1  6  8  3  6  8
       0.000000000000  1  6  8  4  5  7
      -0.000000141475  1  6  8  4  5  8
       0.000001127249  1  6  8  4  6  7
       0.000000000000  1  6  8  4  6  8
       0.000000000000  1  6  8  5  6  7
       0.000000153181  1  6  8  5  6  8
       0.000000000000  1  6  8  7  9 10
       0.000000377851  1  6  8  8  9 10
      -0.002684043211  2  3  7  1  2  7
       0.000000000000  2  3  7  1  2  8
       0.000000000000  2  3  7  1  3  7
       0.000989992621  2  3  7  1  3  8
      -0.000352912958  2  3  7  1  4  7
       0.000000000000  2  3  7  1  4  8
       0.000000000000  2  3  7  1  5  7
      -0.000048527344  2  3  7  1  5  8
      -0.000325768686  2  3  7  1  6  7
       0.000000000000  2  3  7  1  6  8
      -0.000371203364  2  3  7  2  3  7
       0.000000000000  2  3  7  2  3  8
       0.000000000000  2  3  7  2  4  7
      -0.000033404332  2  3  7  2  4  8
       0.000006631553  2  3  7  2  5  7
       0.000000000000  2  3  7  2  5  8
       0.000000000000  2  3  7  2  6  7
      -0.000025109012  2  3  7  2  6  8
       0.000003766356  2  3  7  3  4  7
       0.000000000000  2  3  7  3  4  8
       0.000000000000  2  3  7  3  5  7
      -0.000000945447  2  3  7  3  5  8
       0.000003225451  2  3  7  3  6  7
       0.000000000000  2  3  7  3  6  8
       0.000001590200  2  3  7  4  5  7
       0.000000000000  2  3  7  4  5  8
       0.000000000000  2  3  7  4  6  7
      -0.000000964966  2  3  7  4  6  8
      -0.000001415527  2  3  7  5  6  7
       0.000000000000  2  3  7  5  6  8
       0.000000063762  2  3  7  7  9 10
       0.000000000000  2  3  7  8  9 10
       0.000000000000  2  3  8  1  2  7
      -0.002743533917  2  3  8  1  2  8
       0.000930709593  2  3  8  1  3  7
       0.000000000000  2  3  8  1  3  8
       0.000000000000  2  3  8  1  4  7
       0.000049204449  2  3  8  1  4  8
      -0.000043060525  2  3  8  1  5  7
       0.000000000000  2  3  8  1  5  8
       0.000000000000  2  3  8  1  6  7
       0.000034547617  2  3  8  1  6  8
       0.000000000000  2  3  8  2  3  7
      -0.001090294674  2  3  8  2  3  8
      -0.000052198998  2  3  8  2  4  7
       0.000000000000  2  3  8  2  4  8
       0.000000000000  2  3  8  2  5  7
       0.000049364003  2  3  8  2  5  8
      -0.000041676745  2  3  8  2  6  7
       0.000000000000  2  3  8  2  6  8
       0.000000000000  2  3  8  3  4  7
       0.000007503480  2  3  8  3  4  8
      -0.000001343614  2  3  8  3  5  7
       0.000000000000  2  3  8  3  5  8
       0.000000000000  2  3  8  3  6  7
       0.000010490763  2  3  8  3  6  8
       0.000000000000  2  3  8  4  5  7
      -0.000000153789  2  3  8  4  5  8
      -0.000000803166  2  3  8  4  6  7
       0.000000000000  2  3  8  4  6  8
       0.000000000000  2  3  8  5  6  7
      -0.000001920588  2  3  8  5  6  8
       0.000000000000  2  3  8  7  9 10
      -0.000000706261  2  3  8  8  9 10
       0.000000000000  2  4  7  1  2  7
       0.000667915424  2  4  7  1  2  8
      -0.000360974225  2  4  7  1  3  7
       0.000000000000  2  4  7  1  3  8
       0.000000000000  2  4  7  1  4  7
      -0.000169802326  2  4  7  1  4  8
       0.000122782981  2  4  7  1  5  7
       0.000000000000  2  4  7  1  5  8
       0.000000000000  2  4  7  1  6  7
      -0.000072189715  2  4  7  1  6  8
       0.000000000000  2  4  7  2  3  7
      -0.000052198998  2  4  7  2  3  8
       0.000536475732  2  4  7  2  4  7
       0.000000000000  2  4  7  2  4  8
       0.000000000000  2  4  7  2  5  7
      -0.000007368973  2  4  7  2  5  8
       0.000272816437  2  4  7  2  6  7
       0.000000000000  2  4  7  2  6  8
       0.000000000000  2  4  7  3  4  7
      -0.000005674056  2  4  7  3  4  8
       0.000000287130  2  4  7  3  5  7
       0.000000000000  2  4  7  3  5  8
       0.000000000000  2  4  7  3  6  7
      -0.000004016984  2  4  7  3  6  8
       0.000000000000  2  4  7  4  5  7
       0.000001491505  2  4  7  4  5  8
      -0.000003325749  2  4  7  4  6  7
       0.000000000000  2  4  7  4  6  8
       0.000000000000  2  4  7  5  6  7
      -0.000001212605  2  4  7  5  6  8
       0.000000000000  2  4  7  7  9 10
      -0.000000282219  2  4  7  8  9 10
       0.000943044865  2  4  8  1  2  7
       0.000000000000  2  4  8  1  2  8
       0.000000000000  2  4  8  1  3  7
       0.000044186927  2  4  8  1  3  8
      -0.000158086184  2  4  8  1  4  7
       0.000000000000  2  4  8  1  4  8
       0.000000000000  2  4  8  1  5  7
       0.000004804996  2  4  8  1  5  8
      -0.000063012207  2  4  8  1  6  7
       0.000000000000  2  4  8  1  6  8
      -0.000033404332  2  4  8  2  3  7
       0.000000000000  2  4  8  2  3  8
       0.000000000000  2  4  8  2  4  7
       0.000174658641  2  4  8  2  4  8
      -0.000011369092  2  4  8  2  5  7
       0.000000000000  2  4  8  2  5  8
       0.000000000000  2  4  8  2  6  7
       0.000076430608  2  4  8  2  6  8
      -0.000005468894  2  4  8  3  4  7
       0.000000000000  2  4  8  3  4  8
       0.000000000000  2  4  8  3  5  7
      -0.000001258117  2  4  8  3  5  8
      -0.000004268696  2  4  8  3  6  7
       0.000000000000  2  4  8  3  6  8
       0.000001373011  2  4  8  4  5  7
       0.000000000000  2  4  8  4  5  8
       0.000000000000  2  4  8  4  6  7
      -0.000001933156  2  4  8  4  6  8
      -0.000001078371  2  4  8  5  6  7
       0.000000000000  2  4  8  5  6  8
      -0.000000278410  2  4  8  7  9 10
       0.000000000000  2  4  8  8  9 10
       0.000528918689  2  5  7  1  2  7
       0.000000000000  2  5  7  1  2  8
       0.000000000000  2  5  7  1  3  7
      -0.000051457674  2  5  7  1  3  8
       0.000134384136  2  5  7  1  4  7
       0.000000000000  2  5  7  1  4  8
       0.000000000000  2  5  7  1  5  7
      -0.000082835890  2  5  7  1  5  8
      -0.000141215632  2  5  7  1  6  7
       0.000000000000  2  5  7  1  6  8
       0.000006631553  2  5  7  2  3  7
       0.000000000000  2  5  7  2  3  8
       0.000000000000  2  5  7  2  4  7
      -0.000011369092  2  5  7  2  4  8
       0.000218847674  2  5  7  2  5  7
       0.000000000000  2  5  7  2  5  8
       0.000000000000  2  5  7  2  6  7
       0.000009097877  2  5  7  2  6  8
      -0.000001303672  2  5  7  3  4  7
       0.000000000000  2  5  7  3  4  8
       0.000000000000  2  5  7  3  5  7
       0.000000304640  2  5  7  3  5  8
       0.000000291484  2  5  7  3  6  7
       0.000000000000  2  5  7  3  6  8
       0.000000351262  2  5  7  4  5  7
       0.000000000000  2  5  7  4  5  8
       0.000000000000  2  5  7  4  6  7
      -0.000002964452  2  5  7  4  6  8
      -0.000001990873  2  5  7  5  6  7
       0.000000000000  2  5  7  5  6  8
       0.000000046345  2  5  7  7  9 10
       0.000000000000  2  5  7  8  9 10
       0.000000000000  2  5  8  1  2  7
      -0.000014699477  2  5  8  1  2  8
      -0.000049674344  2  5  8  1  3  7
       0.000000000000  2  5  8  1  3  8
       0.000000000000  2  5  8  1  4  7
       0.000005718268  2  5  8  1  4  8
      -0.000079996760  2  5  8  1  5  7
       0.000000000000  2  5  8  1  5  8
       0.000000000000  2  5  8  1  6  7
       0.000004545909  2  5  8  1  6  8
       0.000000000000  2  5  8  2  3  7
       0.000049364003  2  5  8  2  3  8
      -0.000007368973  2  5  8  2  4  7
       0.000000000000  2  5  8  2  4  8
       0.000000000000  2  5  8  2  5  7
       0.000082468475  2  5  8  2  5  8
       0.000012872870  2  5  8  2  6  7
       0.000000000000  2  5  8  2  6  8
       0.000000000000  2  5  8  3  4  7
      -0.000001081925  2  5  8  3  4  8
       0.000000638975  2  5  8  3  5  7
       0.000000000000  2  5  8  3  5  8
       0.000000000000  2  5  8  3  6  7
      -0.000001615620  2  5  8  3  6  8
       0.000000000000  2  5  8  4  5  7
       0.000002077526  2  5  8  4  5  8
      -0.000002557041  2  5  8  4  6  7
       0.000000000000  2  5  8  4  6  8
       0.000000000000  2  5  8  5  6  7
      -0.000001429454  2  5  8  5  6  8
       0.000000000000  2  5  8  7  9 10
       0.000000075520  2  5  8  8  9 10
       0.000000000000  2  6  7  1  2  7
       0.000469513902  2  6  7  1  2  8
      -0.000323509242  2  6  7  1  3  7
       0.000000000000  2  6  7  1  3  8
       0.000000000000  2  6  7  1  4  7
      -0.000075672503  2  6  7  1  4  8
      -0.000128789265  2  6  7  1  5  7
       0.000000000000  2  6  7  1  5  8
       0.000000000000  2  6  7  1  6  7
      -0.000043476884  2  6  7  1  6  8
       0.000000000000  2  6  7  2  3  7
      -0.000041676745  2  6  7  2  3  8
       0.000272816437  2  6  7  2  4  7
       0.000000000000  2  6  7  2  4  8
       0.000000000000  2  6  7  2  5  7
       0.000012872870  2  6  7  2  5  8
       0.000473426662  2  6  7  2  6  7
       0.000000000000  2  6  7  2  6  8
       0.000000000000  2  6  7  3  4  7
      -0.000003135171  2  6  7  3  4  8
       0.000001703294  2  6  7  3  5  7
       0.000000000000  2  6  7  3  5  8
       0.000000000000  2  6  7  3  6  7
      -0.000005009231  2  6  7  3  6  8
       0.000000000000  2  6  7  4  5  7
      -0.000001784965  2  6  7  4  5  8
       0.000001797646  2  6  7  4  6  7
       0.000000000000  2  6  7  4  6  8
       0.000000000000  2  6  7  5  6  7
       0.000001559056  2  6  7  5  6  8
       0.000000000000  2  6  7  7  9 10
      -0.000000237372  2  6  7  8  9 10
       0.000710093665  2  6  8  1  2  7
       0.000000000000  2  6  8  1  2  8
       0.000000000000  2  6  8  1  3  7
       0.000041923098  2  6  8  1  3  8
      -0.000069551434  2  6  8  1  4  7
       0.000000000000  2  6  8  1  4  8
       0.000000000000  2  6  8  1  5  7
      -0.000000728345  2  6  8  1  5  8
      -0.000041343302  2  6  8  1  6  7
       0.000000000000  2  6  8  1  6  8
      -0.000025109012  2  6  8  2  3  7
       0.000000000000  2  6  8  2  3  8
       0.000000000000  2  6  8  2  4  7
       0.000076430608  2  6  8  2  4  8
       0.000009097877  2  6  8  2  5  7
       0.000000000000  2  6  8  2  5  8
       0.000000000000  2  6  8  2  6  7
       0.000026391848  2  6  8  2  6  8
      -0.000003380494  2  6  8  3  4  7
       0.000000000000  2  6  8  3  4  8
       0.000000000000  2  6  8  3  5  7
       0.000000295865  2  6  8  3  5  8
      -0.000004078518  2  6  8  3  6  7
       0.000000000000  2  6  8  3  6  8
      -0.000001456918  2  6  8  4  5  7
       0.000000000000  2  6  8  4  5  8
       0.000000000000  2  6  8  4  6  7
       0.000002063720  2  6  8  4  6  8
       0.000001159518  2  6  8  5  6  7
       0.000000000000  2  6  8  5  6  8
      -0.000000233535  2  6  8  7  9 10
       0.000000000000  2  6  8  8  9 10
      -0.000008075958  3  4  7  1  2  7
       0.000000000000  3  4  7  1  2  8
       0.000000000000  3  4  7  1  3  7
       0.000004639451  3  4  7  1  3  8
      -0.000003664207  3  4  7  1  4  7
       0.000000000000  3  4  7  1  4  8
       0.000000000000  3  4  7  1  5  7
      -0.000002972981  3  4  7  1  5  8
       0.000000791385  3  4  7  1  6  7
       0.000000000000  3  4  7  1  6  8
       0.000003766356  3  4  7  2  3  7
       0.000000000000  3  4  7  2  3  8
       0.000000000000  3  4  7  2  4  7
      -0.000005468894  3  4  7  2  4  8
      -0.000001303672  3  4  7  2  5  7
       0.000000000000  3  4  7  2  5  8
       0.000000000000  3  4  7  2  6  7
      -0.000003380494  3  4  7  2  6  8
      -0.000000788240  3  4  7  3  4  7
       0.000000000000  3  4  7  3  4  8
       0.000000000000  3  4  7  3  5  7
       0.000001474497  3  4  7  3  5  8
      -0.000001257198  3  4  7  3  6  7
       0.000000000000  3  4  7  3  6  8
      -0.000000610036  3  4  7  4  5  7
       0.000000000000  3  4  7  4  5  8
       0.000000000000  3  4  7  4  6  7
      -0.000000415368  3  4  7  4  6  8
       0.000000554215  3  4  7  5  6  7
       0.000000000000  3  4  7  5  6  8
       0.000000000000  3  4  7  7  9 10
       0.000000000000  3  4  7  8  9 10
       0.000000000000  3  4  8  1  2  7
      -0.000005062869  3  4  8  1  2  8
       0.000002149120  3  4  8  1  3  7
       0.000000000000  3  4  8  1  3  8
       0.000000000000  3  4  8  1  4  7
      -0.000003906185  3  4  8  1  4  8
      -0.000003230158  3  4  8  1  5  7
       0.000000000000  3  4  8  1  5  8
       0.000000000000  3  4  8  1  6  7
       0.000000867552  3  4  8  1  6  8
       0.000000000000  3  4  8  2  3  7
       0.000007503480  3  4  8  2  3  8
      -0.000005674056  3  4  8  2  4  7
       0.000000000000  3  4  8  2  4  8
       0.000000000000  3  4  8  2  5  7
      -0.000001081925  3  4  8  2  5  8
      -0.000003135171  3  4  8  2  6  7
       0.000000000000  3  4  8  2  6  8
       0.000000000000  3  4  8  3  4  7
       0.000005047607  3  4  8  3  4  8
       0.000001480245  3  4  8  3  5  7
       0.000000000000  3  4  8  3  5  8
       0.000000000000  3  4  8  3  6  7
       0.000002595805  3  4  8  3  6  8
       0.000000000000  3  4  8  4  5  7
       0.000000186838  3  4  8  4  5  8
      -0.000000461015  3  4  8  4  6  7
       0.000000000000  3  4  8  4  6  8
       0.000000000000  3  4  8  5  6  7
      -0.000000167219  3  4  8  5  6  8
       0.000000000000  3  4  8  7  9 10
      -0.000000046745  3  4  8  8  9 10
       0.000000000000  3  5  7  1  2  7
      -0.000005890167  3  5  7  1  2  8
      -0.000000749201  3  5  7  1  3  7
       0.000000000000  3  5  7  1  3  8
       0.000000000000  3  5  7  1  4  7
      -0.000002577384  3  5  7  1  4  8
      -0.000004721895  3  5  7  1  5  7
       0.000000000000  3  5  7  1  5  8
       0.000000000000  3  5  7  1  6  7
       0.000004328212  3  5  7  1  6  8
       0.000000000000  3  5  7  2  3  7
      -0.000001343614  3  5  7  2  3  8
[...]
       0.000000000000  2  7 10  2  7  9
       0.000152523836  2  7 10  2  7 10
       0.000014922852  2  7 10  2  8  9
       0.000000000000  2  7 10  2  8 10
       0.000000366524  2  7 10  3  7  9
       0.000000000000  2  7 10  3  7 10
       0.000000000000  2  7 10  3  8  9
      -0.000000519575  2  7 10  3  8 10
       0.000000000000  2  7 10  4  7  9
       0.000002001510  2  7 10  4  7 10
      -0.000001927558  2  7 10  4  8  9
       0.000000000000  2  7 10  4  8 10
      -0.000000501815  2  7 10  5  7  9
       0.000000000000  2  7 10  5  7 10
       0.000000000000  2  7 10  5  8  9
       0.000000227839  2  7 10  5  8 10
       0.000000000000  2  7 10  6  7  9
       0.000002152753  2  7 10  6  7 10
      -0.000001439346  2  7 10  6  8  9
       0.000000000000  2  7 10  6  8 10
      -0.000139653321  2  8  9  1  7  9
       0.000000000000  2  8  9  1  7 10
       0.000000000000  2  8  9  1  8  9
      -0.000000107006  2  8  9  1  8 10
       0.000000000000  2  8  9  2  7  9
       0.000014922852  2  8  9  2  7 10
       0.000152523836  2  8  9  2  8  9
       0.000000000000  2  8  9  2  8 10
       0.000000366524  2  8  9  3  7  9
       0.000000000000  2  8  9  3  7 10
       0.000000000000  2  8  9  3  8  9
      -0.000000519575  2  8  9  3  8 10
       0.000000000000  2  8  9  4  7  9
      -0.000001927558  2  8  9  4  7 10
       0.000002001510  2  8  9  4  8  9
       0.000000000000  2  8  9  4  8 10
      -0.000000501815  2  8  9  5  7  9
       0.000000000000  2  8  9  5  7 10
       0.000000000000  2  8  9  5  8  9
       0.000000227839  2  8  9  5  8 10
       0.000000000000  2  8  9  6  7  9
      -0.000001439346  2  8  9  6  7 10
       0.000002152753  2  8  9  6  8  9
       0.000000000000  2  8  9  6  8 10
       0.000000000000  2  8 10  1  7  9
      -0.000003468111  2  8 10  1  7 10
      -0.000003468111  2  8 10  1  8  9
       0.000000000000  2  8 10  1  8 10
       0.000014591739  2  8 10  2  7  9
       0.000000000000  2  8 10  2  7 10
       0.000000000000  2  8 10  2  8  9
      -0.000011611277  2  8 10  2  8 10
       0.000000000000  2  8 10  3  7  9
       0.000000210850  2  8 10  3  7 10
       0.000000210850  2  8 10  3  8  9
       0.000000000000  2  8 10  3  8 10
      -0.000001659603  2  8 10  4  7  9
       0.000000000000  2  8 10  4  7 10
       0.000000000000  2  8 10  4  8  9
       0.000001803611  2  8 10  4  8 10
       0.000000000000  2  8 10  5  7  9
       0.000000143147  2  8 10  5  7 10
       0.000000143147  2  8 10  5  8  9
       0.000000000000  2  8 10  5  8 10
      -0.000001199032  2  8 10  6  7  9
       0.000000000000  2  8 10  6  7 10
       0.000000000000  2  8 10  6  8  9
       0.000000753477  2  8 10  6  8 10
      -0.000004067995  3  7  9  1  7  9
       0.000000000000  3  7  9  1  7 10
       0.000000000000  3  7  9  1  8  9
       0.000004456856  3  7  9  1  8 10
       0.000000000000  3  7  9  2  7  9
       0.000000366524  3  7  9  2  7 10
       0.000000366524  3  7  9  2  8  9
       0.000000000000  3  7  9  2  8 10
       0.000000000000  3  7  9  3  7  9
       0.000000000000  3  7  9  3  7 10
       0.000000000000  3  7  9  3  8  9
      -0.000001969220  3  7  9  3  8 10
       0.000000000000  3  7  9  4  7  9
       0.000000686029  3  7  9  4  7 10
       0.000000686029  3  7  9  4  8  9
       0.000000000000  3  7  9  4  8 10
       0.000000031746  3  7  9  5  7  9
       0.000000000000  3  7  9  5  7 10
       0.000000000000  3  7  9  5  8  9
       0.000000112593  3  7  9  5  8 10
       0.000000000000  3  7  9  6  7  9
       0.000000635422  3  7  9  6  7 10
       0.000000635422  3  7  9  6  8  9
       0.000000000000  3  7  9  6  8 10
       0.000000000000  3  7 10  1  7  9
      -0.000005708232  3  7 10  1  7 10
       0.000004930509  3  7 10  1  8  9
       0.000000000000  3  7 10  1  8 10
       0.000000425602  3  7 10  2  7  9
       0.000000000000  3  7 10  2  7 10
       0.000000000000  3  7 10  2  8  9
       0.000000210850  3  7 10  2  8 10
       0.000000000000  3  7 10  3  7  9
       0.000000994992  3  7 10  3  7 10
      -0.000001937410  3  7 10  3  8  9
       0.000000000000  3  7 10  3  8 10
       0.000000687931  3  7 10  4  7  9
       0.000000000000  3  7 10  4  7 10
       0.000000000000  3  7 10  4  8  9
      -0.000000031171  3  7 10  4  8 10
       0.000000000000  3  7 10  5  7  9
       0.000000000000  3  7 10  5  7 10
       0.000000110644  3  7 10  5  8  9
       0.000000000000  3  7 10  5  8 10
       0.000000640605  3  7 10  6  7  9
       0.000000000000  3  7 10  6  7 10
       0.000000000000  3  7 10  6  8  9
       0.000000000000  3  7 10  6  8 10
       0.000000000000  3  8  9  1  7  9
       0.000004930509  3  8  9  1  7 10
      -0.000005708232  3  8  9  1  8  9
       0.000000000000  3  8  9  1  8 10
       0.000000425602  3  8  9  2  7  9
       0.000000000000  3  8  9  2  7 10
       0.000000000000  3  8  9  2  8  9
       0.000000210850  3  8  9  2  8 10
       0.000000000000  3  8  9  3  7  9
      -0.000001937410  3  8  9  3  7 10
       0.000000994992  3  8  9  3  8  9
       0.000000000000  3  8  9  3  8 10
       0.000000687931  3  8  9  4  7  9
       0.000000000000  3  8  9  4  7 10
       0.000000000000  3  8  9  4  8  9
      -0.000000031171  3  8  9  4  8 10
       0.000000000000  3  8  9  5  7  9
       0.000000110644  3  8  9  5  7 10
       0.000000000000  3  8  9  5  8  9
       0.000000000000  3  8  9  5  8 10
       0.000000640605  3  8  9  6  7  9
       0.000000000000  3  8  9  6  7 10
       0.000000000000  3  8  9  6  8  9
       0.000000000000  3  8  9  6  8 10
       0.000005382281  3  8 10  1  7  9
       0.000000000000  3  8 10  1  7 10
       0.000000000000  3  8 10  1  8  9
      -0.000006378490  3  8 10  1  8 10
       0.000000000000  3  8 10  2  7  9
      -0.000000519575  3  8 10  2  7 10
      -0.000000519575  3  8 10  2  8  9
       0.000000000000  3  8 10  2  8 10
      -0.000001969220  3  8 10  3  7  9
       0.000000000000  3  8 10  3  7 10
       0.000000000000  3  8 10  3  8  9
       0.000002737570  3  8 10  3  8 10
       0.000000000000  3  8 10  4  7  9
       0.000000000000  3  8 10  4  7 10
       0.000000000000  3  8 10  4  8  9
       0.000000000000  3  8 10  4  8 10
       0.000000108242  3  8 10  5  7  9
       0.000000000000  3  8 10  5  7 10
       0.000000000000  3  8 10  5  8  9
      -0.000000135329  3  8 10  5  8 10
       0.000000000000  3  8 10  6  7  9
       0.000000000000  3  8 10  6  7 10
       0.000000000000  3  8 10  6  8  9
       0.000000000000  3  8 10  6  8 10
       0.000000000000  4  7  9  1  7  9
       0.000000277259  4  7  9  1  7 10
       0.000000277259  4  7  9  1  8  9
       0.000000000000  4  7  9  1  8 10
       0.000000888803  4  7  9  2  7  9
       0.000000000000  4  7  9  2  7 10
       0.000000000000  4  7  9  2  8  9
      -0.000001659603  4  7  9  2  8 10
       0.000000000000  4  7  9  3  7  9
       0.000000687931  4  7  9  3  7 10
       0.000000687931  4  7  9  3  8  9
       0.000000000000  4  7  9  3  8 10
      -0.000001392110  4  7  9  4  7  9
       0.000000000000  4  7  9  4  7 10
       0.000000000000  4  7  9  4  8  9
       0.000000377611  4  7  9  4  8 10
       0.000000000000  4  7  9  5  7  9
      -0.000000240065  4  7  9  5  7 10
      -0.000000240065  4  7  9  5  8  9
       0.000000000000  4  7  9  5  8 10
      -0.000000676959  4  7  9  6  7  9
       0.000000000000  4  7  9  6  7 10
       0.000000000000  4  7  9  6  8  9
       0.000000178907  4  7  9  6  8 10
       0.000000000000  4  7 10  1  7  9
       0.000000000000  4  7 10  1  7 10
       0.000000000000  4  7 10  1  8  9
       0.000000062115  4  7 10  1  8 10
       0.000000000000  4  7 10  2  7  9
       0.000002001510  4  7 10  2  7 10
      -0.000001927558  4  7 10  2  8  9
       0.000000000000  4  7 10  2  8 10
       0.000000686029  4  7 10  3  7  9
       0.000000000000  4  7 10  3  7 10
       0.000000000000  4  7 10  3  8  9
       0.000000000000  4  7 10  3  8 10
       0.000000000000  4  7 10  4  7  9
      -0.000001191929  4  7 10  4  7 10
       0.000000374477  4  7 10  4  8  9
       0.000000000000  4  7 10  4  8 10
      -0.000000236461  4  7 10  5  7  9
       0.000000000000  4  7 10  5  7 10
       0.000000000000  4  7 10  5  8  9
       0.000000000000  4  7 10  5  8 10
       0.000000000000  4  7 10  6  7  9
      -0.000000595345  4  7 10  6  7 10
       0.000000176833  4  7 10  6  8  9
       0.000000000000  4  7 10  6  8 10
       0.000000000000  4  8  9  1  7  9
       0.000000000000  4  8  9  1  7 10
       0.000000000000  4  8  9  1  8  9
       0.000000062115  4  8  9  1  8 10
       0.000000000000  4  8  9  2  7  9
      -0.000001927558  4  8  9  2  7 10
       0.000002001510  4  8  9  2  8  9
       0.000000000000  4  8  9  2  8 10
       0.000000686029  4  8  9  3  7  9
       0.000000000000  4  8  9  3  7 10
       0.000000000000  4  8  9  3  8  9
       0.000000000000  4  8  9  3  8 10
       0.000000000000  4  8  9  4  7  9
       0.000000374477  4  8  9  4  7 10
      -0.000001191929  4  8  9  4  8  9
       0.000000000000  4  8  9  4  8 10
      -0.000000236461  4  8  9  5  7  9
       0.000000000000  4  8  9  5  7 10
       0.000000000000  4  8  9  5  8  9
       0.000000000000  4  8  9  5  8 10
       0.000000000000  4  8  9  6  7  9
       0.000000176833  4  8  9  6  7 10
      -0.000000595345  4  8  9  6  8  9
       0.000000000000  4  8  9  6  8 10
       0.000000000000  4  8 10  1  7  9
       0.000000563847  4  8 10  1  7 10
       0.000000563847  4  8 10  1  8  9
       0.000000000000  4  8 10  1  8 10
      -0.000002248656  4  8 10  2  7  9
       0.000000000000  4  8 10  2  7 10
       0.000000000000  4  8 10  2  8  9
       0.000001803611  4  8 10  2  8 10
       0.000000000000  4  8 10  3  7  9
      -0.000000031171  4  8 10  3  7 10
      -0.000000031171  4  8 10  3  8  9
       0.000000000000  4  8 10  3  8 10
       0.000000377611  4  8 10  4  7  9
       0.000000000000  4  8 10  4  7 10
       0.000000000000  4  8 10  4  8  9
      -0.000000466946  4  8 10  4  8 10
       0.000000000000  4  8 10  5  7  9
       0.000000000000  4  8 10  5  7 10
       0.000000000000  4  8 10  5  8  9
       0.000000000000  4  8 10  5  8 10
       0.000000177745  4  8 10  6  7  9
       0.000000000000  4  8 10  6  7 10
       0.000000000000  4  8 10  6  8  9
      -0.000000185904  4  8 10  6  8 10
       0.000000796188  5  7  9  1  7  9
       0.000000000000  5  7  9  1  7 10
       0.000000000000  5  7  9  1  8  9
      -0.000000364096  5  7  9  1  8 10
       0.000000000000  5  7  9  2  7  9
      -0.000000501815  5  7  9  2  7 10
      -0.000000501815  5  7  9  2  8  9
       0.000000000000  5  7  9  2  8 10
       0.000000031746  5  7  9  3  7  9
       0.000000000000  5  7  9  3  7 10
       0.000000000000  5  7  9  3  8  9
       0.000000108242  5  7  9  3  8 10
       0.000000000000  5  7  9  4  7  9
      -0.000000236461  5  7  9  4  7 10
      -0.000000236461  5  7  9  4  8  9
       0.000000000000  5  7  9  4  8 10
      -0.000000516968  5  7  9  5  7  9
       0.000000000000  5  7  9  5  7 10
       0.000000000000  5  7  9  5  8  9
       0.000000149244  5  7  9  5  8 10
       0.000000000000  5  7  9  6  7  9
       0.000000249463  5  7  9  6  7 10
       0.000000249463  5  7  9  6  8  9
       0.000000000000  5  7  9  6  8 10
       0.000000000000  5  7 10  1  7  9
       0.000000724252  5  7 10  1  7 10
      -0.000000409586  5  7 10  1  8  9
       0.000000000000  5  7 10  1  8 10
      -0.000000453758  5  7 10  2  7  9
       0.000000000000  5  7 10  2  7 10
       0.000000000000  5  7 10  2  8  9
       0.000000143147  5  7 10  2  8 10
       0.000000000000  5  7 10  3  7  9
       0.000000000000  5  7 10  3  7 10
       0.000000110644  5  7 10  3  8  9
       0.000000000000  5  7 10  3  8 10
      -0.000000240065  5  7 10  4  7  9
       0.000000000000  5  7 10  4  7 10
       0.000000000000  5  7 10  4  8  9
       0.000000000000  5  7 10  4  8 10
       0.000000000000  5  7 10  5  7  9
      -0.000000460362  5  7 10  5  7 10
       0.000000148804  5  7 10  5  8  9
       0.000000000000  5  7 10  5  8 10
       0.000000247125  5  7 10  6  7  9
       0.000000000000  5  7 10  6  7 10
       0.000000000000  5  7 10  6  8  9
       0.000000000000  5  7 10  6  8 10
       0.000000000000  5  8  9  1  7  9
      -0.000000409586  5  8  9  1  7 10
       0.000000724252  5  8  9  1  8  9
       0.000000000000  5  8  9  1  8 10
      -0.000000453758  5  8  9  2  7  9
       0.000000000000  5  8  9  2  7 10
       0.000000000000  5  8  9  2  8  9
       0.000000143147  5  8  9  2  8 10
       0.000000000000  5  8  9  3  7  9
       0.000000110644  5  8  9  3  7 10
       0.000000000000  5  8  9  3  8  9
       0.000000000000  5  8  9  3  8 10
      -0.000000240065  5  8  9  4  7  9
       0.000000000000  5  8  9  4  7 10
       0.000000000000  5  8  9  4  8  9
       0.000000000000  5  8  9  4  8 10
       0.000000000000  5  8  9  5  7  9
       0.000000148804  5  8  9  5  7 10
      -0.000000460362  5  8  9  5  8  9
       0.000000000000  5  8  9  5  8 10
       0.000000247125  5  8  9  6  7  9
       0.000000000000  5  8  9  6  7 10
       0.000000000000  5  8  9  6  8  9
       0.000000000000  5  8  9  6  8 10
      -0.000000456779  5  8 10  1  7  9
       0.000000000000  5  8 10  1  7 10
       0.000000000000  5  8 10  1  8  9
       0.000000036889  5  8 10  1  8 10
       0.000000000000  5  8 10  2  7  9
       0.000000227839  5  8 10  2  7 10
       0.000000227839  5  8 10  2  8  9
       0.000000000000  5  8 10  2  8 10
       0.000000112593  5  8 10  3  7  9
       0.000000000000  5  8 10  3  7 10
       0.000000000000  5  8 10  3  8  9
      -0.000000135329  5  8 10  3  8 10
       0.000000000000  5  8 10  4  7  9
       0.000000000000  5  8 10  4  7 10
       0.000000000000  5  8 10  4  8  9
       0.000000000000  5  8 10  4  8 10
       0.000000149244  5  8 10  5  7  9
       0.000000000000  5  8 10  5  7 10
       0.000000000000  5  8 10  5  8  9
      -0.000000201480  5  8 10  5  8 10
       0.000000000000  5  8 10  6  7  9
       0.000000000000  5  8 10  6  7 10
       0.000000000000  5  8 10  6  8  9
       0.000000000000  5  8 10  6  8 10
       0.000000000000  6  7  9  1  7  9
      -0.000000316955  6  7  9  1  7 10
      -0.000000316955  6  7  9  1  8  9
       0.000000000000  6  7  9  1  8 10
       0.000001603703  6  7  9  2  7  9
       0.000000000000  6  7  9  2  7 10
       0.000000000000  6  7  9  2  8  9
      -0.000001199032  6  7  9  2  8 10
       0.000000000000  6  7  9  3  7  9
       0.000000640605  6  7  9  3  7 10
       0.000000640605  6  7  9  3  8  9
       0.000000000000  6  7  9  3  8 10
      -0.000000676959  6  7  9  4  7  9
       0.000000000000  6  7  9  4  7 10
       0.000000000000  6  7  9  4  8  9
       0.000000177745  6  7  9  4  8 10
       0.000000000000  6  7  9  5  7  9
       0.000000247125  6  7  9  5  7 10
       0.000000247125  6  7  9  5  8  9
       0.000000000000  6  7  9  5  8 10
      -0.000001398412  6  7  9  6  7  9
       0.000000000000  6  7  9  6  7 10
       0.000000000000  6  7  9  6  8  9
       0.000000108876  6  7  9  6  8 10
      -0.000000483517  6  7 10  1  7  9
       0.000000000000  6  7 10  1  7 10
       0.000000000000  6  7 10  1  8  9
       0.000000225764  6  7 10  1  8 10
       0.000000000000  6  7 10  2  7  9
       0.000002152753  6  7 10  2  7 10
      -0.000001439346  6  7 10  2  8  9
       0.000000000000  6  7 10  2  8 10
       0.000000635422  6  7 10  3  7  9
       0.000000000000  6  7 10  3  7 10
       0.000000000000  6  7 10  3  8  9
       0.000000000000  6  7 10  3  8 10
       0.000000000000  6  7 10  4  7  9
      -0.000000595345  6  7 10  4  7 10
       0.000000176833  6  7 10  4  8  9
       0.000000000000  6  7 10  4  8 10
       0.000000249463  6  7 10  5  7  9
       0.000000000000  6  7 10  5  7 10
       0.000000000000  6  7 10  5  8  9
       0.000000000000  6  7 10  5  8 10
       0.000000000000  6  7 10  6  7  9
      -0.000001068298  6  7 10  6  7 10
       0.000000106554  6  7 10  6  8  9
       0.000000000000  6  7 10  6  8 10
      -0.000000483517  6  8  9  1  7  9
       0.000000000000  6  8  9  1  7 10
       0.000000000000  6  8  9  1  8  9
       0.000000225764  6  8  9  1  8 10
       0.000000000000  6  8  9  2  7  9
      -0.000001439346  6  8  9  2  7 10
       0.000002152753  6  8  9  2  8  9
       0.000000000000  6  8  9  2  8 10
       0.000000635422  6  8  9  3  7  9
       0.000000000000  6  8  9  3  7 10
       0.000000000000  6  8  9  3  8  9
       0.000000000000  6  8  9  3  8 10
       0.000000000000  6  8  9  4  7  9
       0.000000176833  6  8  9  4  7 10
      -0.000000595345  6  8  9  4  8  9
       0.000000000000  6  8  9  4  8 10
       0.000000249463  6  8  9  5  7  9
       0.000000000000  6  8  9  5  7 10
       0.000000000000  6  8  9  5  8  9
       0.000000000000  6  8  9  5  8 10
       0.000000000000  6  8  9  6  7  9
       0.000000106554  6  8  9  6  7 10
      -0.000001068298  6  8  9  6  8  9
       0.000000000000  6  8  9  6  8 10
       0.000000000000  6  8 10  1  7  9
       0.000000622236  6  8 10  1  7 10
       0.000000622236  6  8 10  1  8  9
       0.000000000000  6  8 10  1  8 10
      -0.000001664955  6  8 10  2  7  9
       0.000000000000  6  8 10  2  7 10
       0.000000000000  6  8 10  2  8  9
       0.000000753477  6  8 10  2  8 10
       0.000000000000  6  8 10  3  7  9
       0.000000000000  6  8 10  3  7 10
       0.000000000000  6  8 10  3  8  9
       0.000000000000  6  8 10  3  8 10
       0.000000178907  6  8 10  4  7  9
       0.000000000000  6  8 10  4  7 10
       0.000000000000  6  8 10  4  8  9
      -0.000000185904  6  8 10  4  8 10
       0.000000000000  6  8 10  5  7  9
       0.000000000000  6  8 10  5  7 10
       0.000000000000  6  8 10  5  8  9
       0.000000000000  6  8 10  5  8 10
       0.000000108876  6  8 10  6  7  9
       0.000000000000  6  8 10  6  7 10
       0.000000000000  6  8 10  6  8  9
      -0.000000069678  6  8 10  6  8 10
 /EOF
 !FCI STATE  1.1 Dipole moment          0.00000000     0.00000000    -0.00000000
 Dipole moment /Debye                   0.00000000     0.00000000    -0.00000000


 **********************************************************************************************************************************
 DATASETS  * FILE   NREC   LENGTH (MB)   RECORD NAMES
              1      19       29.94       500      700      610      900      950      970     1000      129      960     1100   
                                          VAR     GEOM    BASINP   SYMINP    ZMAT    AOBASIS   BASIS     P2S    ABASIS      S 
                                         1400     1410     1200     1210     1080     1600     1650     1300     1700   
                                           T        V       H0       H01     AOSYM     SMH    MOLCAS    ERIS     OPER   

              3       5       14.77       500      610      700     1000     2100   
                                          VAR    BASINP    GEOM     BASIS     RHF  

 PROGRAMS   *        TOTAL       FCI       INT   RESTART
 CPU TIMES  *         0.34      0.05      0.16      0.03
 REAL TIME  *         0.54 SEC
 DISK USED  *        49.42 MB
 **********************************************************************************************************************************
 Molecular orbitals read from record     2100.3  Type=RHF/CANONICAL (state 1.1)
 Occupation numbers read from record     2100.3  Type=RHF/RHF (state 1.1)
 Orbital energies read from record       2100.3  Type=RHF/CANONICAL (state 1.1)
 Redundancy group numbers read from rec  2100.3  Type=RHF/RHF (state 1.1)

 FCI/STO-3G energy=    -14.667372039332

             FCI
    -14.66737204
 **********************************************************************************************************************************
 Molpro calculation terminated
