
 Primary working directories    : /scr/yuriaoto/job.023464/molpro.HHHRzNVb48
 Secondary working directories  : /scr/yuriaoto/job.023464/molpro.HHHRzNVb48
 Wavefunction directory         : /scr/yuriaoto/job.023464/
 Main file repository           : /scr/yuriaoto/job.023464/molpro.HHHRzNVb48/

 id        : yuriaoto

 Nodes             nprocs
 t-rex.ufabc.int.br    1

 Using customized tuning parameters: mindgm=8; mindgv=16; mindgc=1; mindgr=1; noblas=0; minvec=7
 default implementation of scratch files=df  


 Variables initialized (933), CPU time= 0.01 sec
 ***,
 memory,40,m
 gprint,orbital,basis,civector
 gthresh,thrprint=0,printci=0.0
 file,3,wfu.dat,old
 
 {fci
 wf,6,1,2;
 core,0
 }
 Commands  initialized (760), CPU time= 0.01 sec, 617 directives.
 Default parameters read. Elapsed time= 0.05 sec

 Checking input...
 Passed
1


                                         ***  PROGRAM SYSTEM MOLPRO  ***
                                       Copyright, TTI GmbH Stuttgart, 2015
                                    Version 2019.2 linked Abr  7 2019 15:10:35


 **********************************************************************************************************************************
 LABEL *                                                                                 
  64 bit serial version                                                                  DATE: 02-Jun-20          TIME: 00:46:16  
 **********************************************************************************************************************************

 SHA1:             3a8a58c585c929645742fb5a1b7541a4ad1da699
 **********************************************************************************************************************************


 THRESHOLDS:

 ZERO    =  1.00D-12  ONEINT  =  1.00D-12  TWOINT  =  1.00D-11  PREFAC  =  1.00D-14  XXXXXX  =  1.00D-09  EORDER  =  1.00D-04
 ENERGY  =  0.00D+00  ETEST   =  0.00D+00  EDENS   =  0.00D+00  THRDEDEF=  1.00D-06  GRADIENT=  1.00D-02  STEP    =  1.00D-03
 ORBITAL =  1.00D-05  CIVEC   =  1.00D-05  COEFF   =  1.00D-04  PRINTCI =  0.00D+00  PUNCHCI =  9.90D+01  OPTGRAD =  3.00D-04
 OPTENERG=  1.00D-06  OPTSTEP =  3.00D-04  THRGRAD =  1.00D-10  COMPRESS=  1.00D-11  VARMIN  =  1.00D-07  VARMAX  =  1.00D-03
 THRDOUB =  0.00D+00  THRDIV  =  1.00D-05  THRRED  =  1.00D-07  THRPSP  =  1.00D+00  THRDC   =  1.00D-10  THRCS   =  1.00D-10
 THRNRM  =  1.00D-08  THREQ   =  0.00D+00  THRDE   =  1.00D+00  THRREF  =  1.00D-05  SPARFAC =  1.00D+00  THRDLP  =  1.00D-07
 THRDIA  =  1.00D-10  THRDLS  =  1.00D-07  THRGPS  =  0.00D+00  THRKEX  =  0.00D+00  THRDIS  =  2.00D-01  THRVAR  =  1.00D-10
 THRLOC  =  1.00D-06  THRGAP  =  1.00D-06  THRLOCT = -1.00D+00  THRGAPT = -1.00D+00  THRORB  =  1.00D-06  THRMLTP =  0.00D+00
 THRCPQCI=  1.00D-10  KEXTA   =  0.00D+00  THRCOARS=  0.00D+00  SYMTOL  =  1.00D-06  GRADTOL =  1.00D-06  THROVL  =  1.00D-08
 THRORTH =  1.00D-08  GRID    =  1.00D-06  GRIDMAX =  1.00D-03  DTMAX   =  0.00D+00  THROCCDE=  1.00D-01  THROCCDE=  1.00D-01
 THRPRINT=  0.00D+00


 Variable memory set to   40000000 words,  buffer space 



 Permanent file  3  wfu.dat  assigned.  Implementation=df    Size= 14.08 MB


 PROGRAM * RESTART 


 Reading variables from file 3

 _FNUC           =      0.00000000
 _BASIS          =    STO-3G
 _NELEC          =      6.00000000
 _PROGRAM        =    RHF-SCF
 _DMZ            =     -0.00000000
 _DMX_SCF        =      0.00000000
 _DMY_SCF        =      0.00000000
 _DMZ_SCF        =     -0.00000000
 _HOMO           =      3.10000000
 _EHOMO          =     -0.15007102
 _LUMO           =      4.10000000
 _ELUMO          =      0.08336193
 _ENERGY         =    -14.63864283
 _ENERGY_METHOD  =    RHF
 _ENERGY_BASIS   =    STO-3G
 _ENUC           =      1.80000000
 _EPS1(1:6)      =     -2.32975138    -2.32973347    -0.15007102     0.08336193     0.15828123     0.47434817
 _EPS2(1:2)      =      0.13305715     0.24181392
 _EPS3(1:2)      =      0.13305715     0.24181392
 _IPROC_MPP      =      0.00000000
 _IPROC_MPPX     =      0.00000000
 _ORBITAL        =   2100.30000000
 _STATUS         =      1.00000000
 _DATE           =    21-Oct-19
 _LASTORB        =    RHF
 _OUTPUT         =    /scr/yuriaoto/job.022398/RHF.xml
 _PGROUP         =    C2v 
 _TIME           =    10:12:38
 R               =      5.00000000

 Geometry written to block  1 of record 700


 **********************************************************************************************************************************
 DATASETS  * FILE   NREC   LENGTH (MB)   RECORD NAMES
              3       5       14.77       500      610      700     1000     2100   
                                          VAR    BASINP    GEOM     BASIS     RHF  

 PROGRAMS   *        TOTAL   RESTART
 CPU TIMES  *         0.12      0.02
 REAL TIME  *         0.14 SEC
 DISK USED  *        26.84 MB
 **********************************************************************************************************************************


 Recomputing integrals since basis changed


 Using spherical harmonics

 Library entry LI     S STO-3G               selected for orbital group  1
 Library entry LI     P STO-3G               selected for orbital group  1


 PROGRAM * SEWARD (Integral evaluation for generally contracted gaussian basis sets)     Author: Roland Lindh, 1990

 Geometry written to block  1 of record 700

 Orientation using atomic masses  
 Molecule type: Linear
 User-specified symmetry elements: X,Y
 Symmetry elements: X,Y
 Rotational constants:      20.8009354     20.8009354      0.0000000 GHz  (calculated with average atomic masses)

 Point group  C2v 



 ATOMIC COORDINATES

 NR  ATOM    CHARGE       X              Y              Z

   1  LI1     3.00    0.000000000    0.000000000   -2.500000000
   2  LI2     3.00    0.000000000    0.000000000    2.500000000

 Bond lengths in Bohr (Angstrom)

 1-2  5.000000000
     ( 2.645886055)


 BASIS DATA

   Nr Sym  Nuc  Type         Exponents   Contraction coefficients

    1.1 A1    1  1s          16.119575     0.154329
                              2.936201     0.535328
                              0.794651     0.444635
    2.1 A1    1  1s           0.636290    -0.099967
                              0.147860     0.399513
                              0.048089     0.700115
    3.1 A1    1  2pz          0.636290     0.155916
                              0.147860     0.607684
                              0.048089     0.391957
    4.1 A1    2  1s          16.119575     0.154329
                              2.936201     0.535328
                              0.794651     0.444635
    5.1 A1    2  1s           0.636290    -0.099967
                              0.147860     0.399513
                              0.048089     0.700115
    6.1 A1    2  2pz          0.636290     0.155916
                              0.147860     0.607684
                              0.048089     0.391957
    1.2 B1    1  2px          0.636290     0.155916
                              0.147860     0.607684
                              0.048089     0.391957
    2.2 B1    2  2px          0.636290     0.155916
                              0.147860     0.607684
                              0.048089     0.391957
    1.3 B2    1  2py          0.636290     0.155916
                              0.147860     0.607684
                              0.048089     0.391957
    2.3 B2    2  2py          0.636290     0.155916
                              0.147860     0.607684
                              0.048089     0.391957

 NUCLEAR CHARGE:                    6
 NUMBER OF PRIMITIVE AOS:          30
 NUMBER OF SYMMETRY AOS:           30
 NUMBER OF CONTRACTIONS:           10   (    6A1  +    2B1  +    2B2  +    0A2  )
 NUMBER OF CORE ORBITALS:           2   (    2A1  +    0B1  +    0B2  +    0A2  )
 NUMBER OF VALENCE ORBITALS:        8   (    4A1  +    2B1  +    2B2  +    0A2  )


 NUCLEAR REPULSION ENERGY    1.80000000

 Eigenvalues of metric

         1 0.155E+00 0.805E+00 0.846E+00 0.104E+01 0.123E+01 0.192E+01
         2 0.713E+00 0.129E+01
         3 0.713E+00 0.129E+01


 Contracted 2-electron integrals neglected if value below      1.0D-11
 AO integral compression algorithm  1   Integral accuracy      1.0D-11

     0.262 MB (compressed) written to integral file (100.0%)


 NUMBER OF SORTED TWO-ELECTRON INTEGRALS:        648.     BUFFER LENGTH:  32768
 NUMBER OF SEGMENTS:   1  SEGMENT LENGTH:        648      RECORD LENGTH: 524288

 Memory used in sort:       0.56 MW

 SORT1 READ         777. AND WROTE         608. INTEGRALS IN      1 RECORDS. CPU TIME:     0.00 SEC, REAL TIME:     0.00 SEC
 SORT2 READ         608. AND WROTE         648. INTEGRALS IN      1 RECORDS. CPU TIME:     0.00 SEC, REAL TIME:     0.00 SEC

 FILE SIZES:   FILE 1:    30.2 MBYTE,  FILE 4:     4.2 MBYTE,   TOTAL:     34.4 MBYTE

 OPERATOR DM      FOR CENTER  0  COORDINATES:    0.000000    0.000000    0.000000


 **********************************************************************************************************************************
 DATASETS  * FILE   NREC   LENGTH (MB)   RECORD NAMES
              1      19       29.94       500      700      610      900      950      970     1000      129      960     1100   
                                          VAR     GEOM    BASINP   SYMINP    ZMAT    AOBASIS   BASIS     P2S    ABASIS      S 
                                         1400     1410     1200     1210     1080     1600     1650     1300     1700   
                                           T        V       H0       H01     AOSYM     SMH    MOLCAS    ERIS     OPER   

              3       5       14.77       500      610      700     1000     2100   
                                          VAR    BASINP    GEOM     BASIS     RHF  

 PROGRAMS   *        TOTAL       INT   RESTART
 CPU TIMES  *         0.26      0.14      0.02
 REAL TIME  *         0.42 SEC
 DISK USED  *        49.42 MB
 **********************************************************************************************************************************


 PROGRAM * FCI (Full CI)     Author: P.J. Knowles, 1984


 Molecular orbitals read from record     2100.3  Type=RHF/CANONICAL (state 1.1)

 Frozen orbitals:              0 (  0  0  0  0  0  0  0  0)
 Active orbitals:             10 (  6  2  2  0  0  0  0  0)
 Active electrons:             6
 Spin quantum number:          1.0
 Orbital pairs:                    27      12      12       4       0       0       0       0
 Strings:                          46      52      52      60       0       0       0       0
                                   17      12      12       4       0       0       0       0
 Determinants:                           2270            2364            2364            2452
                                            0               0               0               0

 Load integrals                1.0 sec
 Transform integrals           1.0 sec
 Storage for integrals:           1243
 Remaining memory:            39997657

 Core energy:               1.80000000
 Run Hamiltonian processor DAVIDSON
 Symmetry:                   1
 Trial vector:                  0.00
 Result vector:                 0.00
 Maximum iterations:           90
 Convergence threshold:         0.0000100
 RHS vector:                    0.00
 Hamiltonian shift:             0.0000000
 Output threshold:              0.0000000
 Options:                        0
 Number of roots:             1

 Hamiltonian diagonaliser entered at time      1.01

 Initial configuration generated:
       1      1.0000000    -14.6156084

 It  Tr    CPU  Convergence   Energy       Pop     dE(next)

  1   1    1.0  1.00000000   -14.61560839
                                           0.03 -0.00579143 -0.00578338
  2   1    1.0  0.12554379   -14.62117009
                                           0.05 -0.00009837 -0.00009537
  3   1    1.0  0.02080165   -14.62126281
                                           0.10 -0.00000403 -0.00000388
  4   1    1.0  0.00113516   -14.62126636
                                           0.17 -0.00000021 -0.00000020
  5   1    1.0  0.00022583   -14.62126656
                                           0.18 -0.00000001 -0.00000001
  6   1    1.0  0.00004859   -14.62126657
                                           0.21 -0.00000000 -0.00000000
  7   1    1.0  0.00001329   -14.62126657
                                           0.20 -0.00000000 -0.00000000
  8   1    1.0  0.00000360   -14.62126657


RESULTS FOR STATE  1.1
=====================

 Correlation energy                    -0.005658178549
 !FCI STATE  1.1 Energy               -14.621266571109
 CI Vector (threshold=  0.00    )
       0.991627128041  1  2  3  4  1  2
       0.000000000000  1  2  3  4  1  3
       0.000315557813  1  2  3  4  1  4
       0.000000000000  1  2  3  4  1  5
       0.006943026702  1  2  3  4  1  6
      -0.003651618802  1  2  3  4  2  3
       0.000000000000  1  2  3  4  2  4
      -0.004200978123  1  2  3  4  2  5
       0.000000000000  1  2  3  4  2  6
       0.000008723446  1  2  3  4  3  4
       0.000000000000  1  2  3  4  3  5
       0.000007435700  1  2  3  4  3  6
      -0.000064100028  1  2  3  4  4  5
       0.000000000000  1  2  3  4  4  6
      -0.000101438249  1  2  3  4  5  6
      -0.000063172390  1  2  3  4  7  8
      -0.000063172390  1  2  3  4  9 10
       0.000000000000  1  2  3  5  1  2
      -0.001801106003  1  2  3  5  1  3
       0.000000000000  1  2  3  5  1  4
      -0.003522258631  1  2  3  5  1  5
       0.000000000000  1  2  3  5  1  6
       0.000000000000  1  2  3  5  2  3
      -0.000932853798  1  2  3  5  2  4
       0.000000000000  1  2  3  5  2  5
       0.004476913165  1  2  3  5  2  6
       0.000000000000  1  2  3  5  3  4
      -0.000007064337  1  2  3  5  3  5
       0.000000000000  1  2  3  5  3  6
       0.000000000000  1  2  3  5  4  5
       0.000015274096  1  2  3  5  4  6
       0.000000000000  1  2  3  5  5  6
       0.000000000000  1  2  3  5  7  8
       0.000000000000  1  2  3  5  9 10
       0.062202345276  1  2  3  6  1  2
       0.000000000000  1  2  3  6  1  3
       0.001569741602  1  2  3  6  1  4
       0.000000000000  1  2  3  6  1  5
      -0.001724687328  1  2  3  6  1  6
      -0.000258150831  1  2  3  6  2  3
       0.000000000000  1  2  3  6  2  4
       0.002083114955  1  2  3  6  2  5
       0.000000000000  1  2  3  6  2  6
       0.000009525808  1  2  3  6  3  4
       0.000000000000  1  2  3  6  3  5
      -0.000001887284  1  2  3  6  3  6
      -0.000006706974  1  2  3  6  4  5
       0.000000000000  1  2  3  6  4  6
      -0.000020375862  1  2  3  6  5  6
      -0.000002170445  1  2  3  6  7  8
      -0.000002170445  1  2  3  6  9 10
      -0.015835423687  1  2  4  5  1  2
       0.000000000000  1  2  4  5  1  3
      -0.001550471184  1  2  4  5  1  4
       0.000000000000  1  2  4  5  1  5
       0.003554943039  1  2  4  5  1  6
      -0.000989534041  1  2  4  5  2  3
       0.000000000000  1  2  4  5  2  4
      -0.003486295863  1  2  4  5  2  5
       0.000000000000  1  2  4  5  2  6
      -0.000004439319  1  2  4  5  3  4
       0.000000000000  1  2  4  5  3  5
       0.000028631455  1  2  4  5  3  6
       0.000016627815  1  2  4  5  4  5
       0.000000000000  1  2  4  5  4  6
       0.000059394418  1  2  4  5  5  6
      -0.000002066811  1  2  4  5  7  8
      -0.000002066811  1  2  4  5  9 10
       0.000000000000  1  2  4  6  1  2
      -0.001038734979  1  2  4  6  1  3
       0.000000000000  1  2  4  6  1  4
       0.002139623080  1  2  4  6  1  5
       0.000000000000  1  2  4  6  1  6
       0.000000000000  1  2  4  6  2  3
       0.002198124331  1  2  4  6  2  4
       0.000000000000  1  2  4  6  2  5
      -0.001363598106  1  2  4  6  2  6
       0.000000000000  1  2  4  6  3  4
       0.000013923387  1  2  4  6  3  5
       0.000000000000  1  2  4  6  3  6
       0.000000000000  1  2  4  6  4  5
      -0.000020331130  1  2  4  6  4  6
       0.000000000000  1  2  4  6  5  6
       0.000000000000  1  2  4  6  7  8
       0.000000000000  1  2  4  6  9 10
      -0.060426589529  1  2  5  6  1  2
       0.000000000000  1  2  5  6  1  3
       0.000070743775  1  2  5  6  1  4
       0.000000000000  1  2  5  6  1  5
      -0.000475291882  1  2  5  6  1  6
       0.000182884835  1  2  5  6  2  3
       0.000000000000  1  2  5  6  2  4
       0.000314862418  1  2  5  6  2  5
       0.000000000000  1  2  5  6  2  6
      -0.000005197260  1  2  5  6  3  4
       0.000000000000  1  2  5  6  3  5
      -0.000001776303  1  2  5  6  3  6
       0.000022191499  1  2  5  6  4  5
       0.000000000000  1  2  5  6  4  6
       0.000035357011  1  2  5  6  5  6
       0.000004642094  1  2  5  6  7  8
       0.000004642094  1  2  5  6  9 10
      -0.065137829488  1  2  7  8  1  2
       0.000000000000  1  2  7  8  1  3
       0.000102658501  1  2  7  8  1  4
       0.000000000000  1  2  7  8  1  5
      -0.000297497843  1  2  7  8  1  6
       0.000074380690  1  2  7  8  2  3
       0.000000000000  1  2  7  8  2  4
       0.000234015877  1  2  7  8  2  5
       0.000000000000  1  2  7  8  2  6
      -0.000000558891  1  2  7  8  3  4
       0.000000000000  1  2  7  8  3  5
       0.000000538967  1  2  7  8  3  6
       0.000003773675  1  2  7  8  4  5
       0.000000000000  1  2  7  8  4  6
       0.000007367021  1  2  7  8  5  6
       0.000042251781  1  2  7  8  7  8
       0.000004561133  1  2  7  8  9 10
      -0.065137829488  1  2  9 10  1  2
       0.000000000000  1  2  9 10  1  3
       0.000102658501  1  2  9 10  1  4
       0.000000000000  1  2  9 10  1  5
      -0.000297497843  1  2  9 10  1  6
       0.000074380690  1  2  9 10  2  3
       0.000000000000  1  2  9 10  2  4
       0.000234015877  1  2  9 10  2  5
       0.000000000000  1  2  9 10  2  6
      -0.000000558891  1  2  9 10  3  4
       0.000000000000  1  2  9 10  3  5
       0.000000538967  1  2  9 10  3  6
       0.000003773675  1  2  9 10  4  5
       0.000000000000  1  2  9 10  4  6
       0.000007367021  1  2  9 10  5  6
       0.000004561133  1  2  9 10  7  8
       0.000042251781  1  2  9 10  9 10
       0.000000000000  1  3  4  5  1  2
       0.000186811240  1  3  4  5  1  3
       0.000000000000  1  3  4  5  1  4
      -0.001016996739  1  3  4  5  1  5
       0.000000000000  1  3  4  5  1  6
       0.000000000000  1  3  4  5  2  3
      -0.000799591753  1  3  4  5  2  4
       0.000000000000  1  3  4  5  2  5
       0.000927008068  1  3  4  5  2  6
       0.000000000000  1  3  4  5  3  4
      -0.000006876883  1  3  4  5  3  5
       0.000000000000  1  3  4  5  3  6
       0.000000000000  1  3  4  5  4  5
       0.000009876698  1  3  4  5  4  6
       0.000000000000  1  3  4  5  5  6
       0.000000000000  1  3  4  5  7  8
       0.000000000000  1  3  4  5  9 10
       0.004334615814  1  3  4  6  1  2
       0.000000000000  1  3  4  6  1  3
      -0.000972156626  1  3  4  6  1  4
       0.000000000000  1  3  4  6  1  5
      -0.002862719182  1  3  4  6  1  6
       0.002103320183  1  3  4  6  2  3
       0.000000000000  1  3  4  6  2  4
       0.001051846447  1  3  4  6  2  5
       0.000000000000  1  3  4  6  2  6
      -0.000011476997  1  3  4  6  3  4
       0.000000000000  1  3  4  6  3  5
      -0.000029295716  1  3  4  6  3  6
       0.000004173842  1  3  4  6  4  5
       0.000000000000  1  3  4  6  4  6
      -0.000011637151  1  3  4  6  5  6
       0.000002452965  1  3  4  6  7  8
       0.000002452965  1  3  4  6  9 10
       0.000000000000  1  3  5  6  1  2
       0.000266693889  1  3  5  6  1  3
       0.000000000000  1  3  5  6  1  4
       0.000089294371  1  3  5  6  1  5
       0.000000000000  1  3  5  6  1  6
       0.000000000000  1  3  5  6  2  3
      -0.000149280624  1  3  5  6  2  4
       0.000000000000  1  3  5  6  2  5
      -0.000310577362  1  3  5  6  2  6
       0.000000000000  1  3  5  6  3  4
       0.000005339570  1  3  5  6  3  5
       0.000000000000  1  3  5  6  3  6
       0.000000000000  1  3  5  6  4  5
      -0.000007426013  1  3  5  6  4  6
       0.000000000000  1  3  5  6  5  6
       0.000000000000  1  3  5  6  7  8
       0.000000000000  1  3  5  6  9 10
       0.000000000000  1  3  7  8  1  2
       0.000193249700  1  3  7  8  1  3
       0.000000000000  1  3  7  8  1  4
      -0.000013576730  1  3  7  8  1  5
       0.000000000000  1  3  7  8  1  6
       0.000000000000  1  3  7  8  2  3
      -0.000159115920  1  3  7  8  2  4
       0.000000000000  1  3  7  8  2  5
      -0.000147269781  1  3  7  8  2  6
       0.000000000000  1  3  7  8  3  4
      -0.000000870418  1  3  7  8  3  5
       0.000000000000  1  3  7  8  3  6
       0.000000000000  1  3  7  8  4  5
       0.000000983858  1  3  7  8  4  6
       0.000000000000  1  3  7  8  5  6
       0.000000000000  1  3  7  8  7  8
       0.000000000000  1  3  7  8  9 10
       0.000000000000  1  3  9 10  1  2
       0.000193249700  1  3  9 10  1  3
       0.000000000000  1  3  9 10  1  4
      -0.000013576730  1  3  9 10  1  5
       0.000000000000  1  3  9 10  1  6
       0.000000000000  1  3  9 10  2  3
      -0.000159115920  1  3  9 10  2  4
       0.000000000000  1  3  9 10  2  5
      -0.000147269781  1  3  9 10  2  6
       0.000000000000  1  3  9 10  3  4
      -0.000000870418  1  3  9 10  3  5
       0.000000000000  1  3  9 10  3  6
       0.000000000000  1  3  9 10  4  5
       0.000000983858  1  3  9 10  4  6
       0.000000000000  1  3  9 10  5  6
       0.000000000000  1  3  9 10  7  8
       0.000000000000  1  3  9 10  9 10
       0.001486032580  1  4  5  6  1  2
       0.000000000000  1  4  5  6  1  3
       0.000167041343  1  4  5  6  1  4
       0.000000000000  1  4  5  6  1  5
       0.000078681348  1  4  5  6  1  6
      -0.000160164980  1  4  5  6  2  3
       0.000000000000  1  4  5  6  2  4
       0.000068582033  1  4  5  6  2  5
       0.000000000000  1  4  5  6  2  6
       0.000001603048  1  4  5  6  3  4
       0.000000000000  1  4  5  6  3  5
      -0.000009608820  1  4  5  6  3  6
      -0.000002563985  1  4  5  6  4  5
       0.000000000000  1  4  5  6  4  6
      -0.000019325126  1  4  5  6  5  6
      -0.000000247768  1  4  5  6  7  8
      -0.000000247768  1  4  5  6  9 10
       0.001082429352  1  4  7  8  1  2
       0.000000000000  1  4  7  8  1  3
       0.000133291785  1  4  7  8  1  4
       0.000000000000  1  4  7  8  1  5
       0.000064690278  1  4  7  8  1  6
      -0.000136212260  1  4  7  8  2  3
       0.000000000000  1  4  7  8  2  4
       0.000047719614  1  4  7  8  2  5
       0.000000000000  1  4  7  8  2  6
       0.000000000000  1  4  7  8  3  4
       0.000000000000  1  4  7  8  3  5
       0.000000803566  1  4  7  8  3  6
      -0.000000889627  1  4  7  8  4  5
       0.000000000000  1  4  7  8  4  6
      -0.000000428976  1  4  7  8  5  6
      -0.000012923951  1  4  7  8  7  8
      -0.000000251261  1  4  7  8  9 10
       0.001082429352  1  4  9 10  1  2
       0.000000000000  1  4  9 10  1  3
       0.000133291785  1  4  9 10  1  4
       0.000000000000  1  4  9 10  1  5
       0.000064690278  1  4  9 10  1  6
      -0.000136212260  1  4  9 10  2  3
       0.000000000000  1  4  9 10  2  4
       0.000047719614  1  4  9 10  2  5
       0.000000000000  1  4  9 10  2  6
       0.000000000000  1  4  9 10  3  4
       0.000000000000  1  4  9 10  3  5
       0.000000803566  1  4  9 10  3  6
      -0.000000889627  1  4  9 10  4  5
       0.000000000000  1  4  9 10  4  6
      -0.000000428976  1  4  9 10  5  6
      -0.000000251261  1  4  9 10  7  8
      -0.000012923951  1  4  9 10  9 10
       0.000000000000  1  5  7  8  1  2
      -0.000015273804  1  5  7  8  1  3
       0.000000000000  1  5  7  8  1  4
       0.000054676831  1  5  7  8  1  5
       0.000000000000  1  5  7  8  1  6
       0.000000000000  1  5  7  8  2  3
       0.000046451914  1  5  7  8  2  4
       0.000000000000  1  5  7  8  2  5
      -0.000049205469  1  5  7  8  2  6
       0.000000000000  1  5  7  8  3  4
       0.000000388996  1  5  7  8  3  5
       0.000000000000  1  5  7  8  3  6
       0.000000000000  1  5  7  8  4  5
      -0.000000521421  1  5  7  8  4  6
       0.000000000000  1  5  7  8  5  6
       0.000000000000  1  5  7  8  7  8
       0.000000000000  1  5  7  8  9 10
       0.000000000000  1  5  9 10  1  2
      -0.000015273804  1  5  9 10  1  3
       0.000000000000  1  5  9 10  1  4
       0.000054676831  1  5  9 10  1  5
       0.000000000000  1  5  9 10  1  6
       0.000000000000  1  5  9 10  2  3
       0.000046451914  1  5  9 10  2  4
       0.000000000000  1  5  9 10  2  5
      -0.000049205469  1  5  9 10  2  6
       0.000000000000  1  5  9 10  3  4
       0.000000388996  1  5  9 10  3  5
       0.000000000000  1  5  9 10  3  6
       0.000000000000  1  5  9 10  4  5
      -0.000000521421  1  5  9 10  4  6
       0.000000000000  1  5  9 10  5  6
       0.000000000000  1  5  9 10  7  8
       0.000000000000  1  5  9 10  9 10
      -0.000509150479  1  6  7  8  1  2
       0.000000000000  1  6  7  8  1  3
       0.000083937323  1  6  7  8  1  4
       0.000000000000  1  6  7  8  1  5
       0.000189459706  1  6  7  8  1  6
      -0.000154110156  1  6  7  8  2  3
       0.000000000000  1  6  7  8  2  4
      -0.000056436753  1  6  7  8  2  5
       0.000000000000  1  6  7  8  2  6
       0.000000000000  1  6  7  8  3  4
       0.000000000000  1  6  7  8  3  5
       0.000001021290  1  6  7  8  3  6
      -0.000000163079  1  6  7  8  4  5
       0.000000000000  1  6  7  8  4  6
       0.000000737853  1  6  7  8  5  6
      -0.000001845571  1  6  7  8  7  8
      -0.000000167058  1  6  7  8  9 10
      -0.000509150479  1  6  9 10  1  2
       0.000000000000  1  6  9 10  1  3
       0.000083937323  1  6  9 10  1  4
       0.000000000000  1  6  9 10  1  5
       0.000189459706  1  6  9 10  1  6
      -0.000154110156  1  6  9 10  2  3
       0.000000000000  1  6  9 10  2  4
      -0.000056436753  1  6  9 10  2  5
       0.000000000000  1  6  9 10  2  6
       0.000000000000  1  6  9 10  3  4
       0.000000000000  1  6  9 10  3  5
       0.000001021290  1  6  9 10  3  6
      -0.000000163079  1  6  9 10  4  5
       0.000000000000  1  6  9 10  4  6
       0.000000737853  1  6  9 10  5  6
      -0.000000167058  1  6  9 10  7  8
      -0.000001845571  1  6  9 10  9 10
      -0.004257757595  2  3  4  5  1  2
       0.000000000000  2  3  4  5  1  3
      -0.000859063212  2  3  4  5  1  4
       0.000000000000  2  3  4  5  1  5
       0.001015063177  2  3  4  5  1  6
       0.000175712377  2  3  4  5  2  3
       0.000000000000  2  3  4  5  2  4
      -0.001126825368  2  3  4  5  2  5
       0.000000000000  2  3  4  5  2  6
      -0.000006951120  2  3  4  5  3  4
       0.000000000000  2  3  4  5  3  5
      -0.000001279838  2  3  4  5  3  6
       0.000008296960  2  3  4  5  4  5
       0.000000000000  2  3  4  5  4  6
       0.000018509458  2  3  4  5  5  6
      -0.000000090863  2  3  4  5  7  8
      -0.000000090863  2  3  4  5  9 10
       0.000000000000  2  3  4  6  1  2
       0.002101216877  2  3  4  6  1  3
       0.000000000000  2  3  4  6  1  4
       0.000929784531  2  3  4  6  1  5
       0.000000000000  2  3  4  6  1  6
       0.000000000000  2  3  4  6  2  3
      -0.001050421064  2  3  4  6  2  4
       0.000000000000  2  3  4  6  2  5
      -0.002781288966  2  3  4  6  2  6
       0.000000000000  2  3  4  6  3  4
      -0.000002826379  2  3  4  6  3  5
       0.000000000000  2  3  4  6  3  6
       0.000000000000  2  3  4  6  4  5
       0.000000482361  2  3  4  6  4  6
       0.000000000000  2  3  4  6  5  6
       0.000000000000  2  3  4  6  7  8
       0.000000000000  2  3  4  6  9 10
       0.002576898142  2  3  5  6  1  2
       0.000000000000  2  3  5  6  1  3
      -0.000122054195  2  3  5  6  1  4
       0.000000000000  2  3  5  6  1  5
      -0.000329203822  2  3  5  6  1  6
       0.000258178498  2  3  5  6  2  3
       0.000000000000  2  3  5  6  2  4
       0.000114554083  2  3  5  6  2  5
       0.000000000000  2  3  5  6  2  6
      -0.000000251759  2  3  5  6  3  4
       0.000000000000  2  3  5  6  3  5
       0.000011927030  2  3  5  6  3  6
       0.000000796491  2  3  5  6  4  5
       0.000000000000  2  3  5  6  4  6
       0.000017315110  2  3  5  6  5  6
       0.000000161697  2  3  5  6  7  8
       0.000000161697  2  3  5  6  9 10
       0.000022503849  2  3  7  8  1  2
       0.000000000000  2  3  7  8  1  3
      -0.000154868863  2  3  7  8  1  4
       0.000000000000  2  3  7  8  1  5
      -0.000143067368  2  3  7  8  1  6
       0.000191060016  2  3  7  8  2  3
       0.000000000000  2  3  7  8  2  4
      -0.000015929354  2  3  7  8  2  5
       0.000000000000  2  3  7  8  2  6
       0.000000000000  2  3  7  8  3  4
       0.000000000000  2  3  7  8  3  5
      -0.000001240214  2  3  7  8  3  6
       0.000000781543  2  3  7  8  4  5
       0.000000000000  2  3  7  8  4  6
      -0.000000117129  2  3  7  8  5  6
       0.000012430074  2  3  7  8  7  8
       0.000000217777  2  3  7  8  9 10
       0.000022503849  2  3  9 10  1  2
       0.000000000000  2  3  9 10  1  3
      -0.000154868863  2  3  9 10  1  4
       0.000000000000  2  3  9 10  1  5
      -0.000143067368  2  3  9 10  1  6
       0.000191060016  2  3  9 10  2  3
       0.000000000000  2  3  9 10  2  4
      -0.000015929354  2  3  9 10  2  5
       0.000000000000  2  3  9 10  2  6
       0.000000000000  2  3  9 10  3  4
       0.000000000000  2  3  9 10  3  5
      -0.000001240214  2  3  9 10  3  6
       0.000000781543  2  3  9 10  4  5
       0.000000000000  2  3  9 10  4  6
      -0.000000117129  2  3  9 10  5  6
       0.000000217777  2  3  9 10  7  8
       0.000012430074  2  3  9 10  9 10
       0.000000000000  2  4  5  6  1  2
      -0.000150651007  2  4  5  6  1  3
       0.000000000000  2  4  5  6  1  4
       0.000105788108  2  4  5  6  1  5
       0.000000000000  2  4  5  6  1  6
       0.000000000000  2  4  5  6  2  3
       0.000186389994  2  4  5  6  2  4
       0.000000000000  2  4  5  6  2  5
       0.000033982220  2  4  5  6  2  6
       0.000000000000  2  4  5  6  3  4
      -0.000006884582  2  4  5  6  3  5
       0.000000000000  2  4  5  6  3  6
       0.000000000000  2  4  5  6  4  5
       0.000008684172  2  4  5  6  4  6
       0.000000000000  2  4  5  6  5  6
       0.000000000000  2  4  5  6  7  8
       0.000000000000  2  4  5  6  9 10
       0.000000000000  2  4  7  8  1  2
      -0.000135159164  2  4  7  8  1  3
       0.000000000000  2  4  7  8  1  4
       0.000046933970  2  4  7  8  1  5
       0.000000000000  2  4  7  8  1  6
       0.000000000000  2  4  7  8  2  3
       0.000135399692  2  4  7  8  2  4
       0.000000000000  2  4  7  8  2  5
       0.000062723621  2  4  7  8  2  6
       0.000000000000  2  4  7  8  3  4
       0.000000671911  2  4  7  8  3  5
       0.000000000000  2  4  7  8  3  6
       0.000000000000  2  4  7  8  4  5
      -0.000000766164  2  4  7  8  4  6
       0.000000000000  2  4  7  8  5  6
       0.000000000000  2  4  7  8  7  8
       0.000000000000  2  4  7  8  9 10
       0.000000000000  2  4  9 10  1  2
      -0.000135159164  2  4  9 10  1  3
       0.000000000000  2  4  9 10  1  4
       0.000046933970  2  4  9 10  1  5
       0.000000000000  2  4  9 10  1  6
       0.000000000000  2  4  9 10  2  3
       0.000135399692  2  4  9 10  2  4
       0.000000000000  2  4  9 10  2  5
       0.000062723621  2  4  9 10  2  6
       0.000000000000  2  4  9 10  3  4
       0.000000671911  2  4  9 10  3  5
       0.000000000000  2  4  9 10  3  6
       0.000000000000  2  4  9 10  4  5
      -0.000000766164  2  4  9 10  4  6
       0.000000000000  2  4  9 10  5  6
       0.000000000000  2  4  9 10  7  8
       0.000000000000  2  4  9 10  9 10
       0.000253610074  2  5  7  8  1  2
       0.000000000000  2  5  7  8  1  3
       0.000050762067  2  5  7  8  1  4
       0.000000000000  2  5  7  8  1  5
      -0.000061213680  2  5  7  8  1  6
      -0.000011199965  2  5  7  8  2  3
       0.000000000000  2  5  7  8  2  4
       0.000066089299  2  5  7  8  2  5
       0.000000000000  2  5  7  8  2  6
       0.000000000000  2  5  7  8  3  4
       0.000000000000  2  5  7  8  3  5
       0.000000405986  2  5  7  8  3  6
      -0.000000641333  2  5  7  8  4  5
       0.000000000000  2  5  7  8  4  6
      -0.000000425008  2  5  7  8  5  6
      -0.000000729041  2  5  7  8  7  8
       0.000000000000  2  5  7  8  9 10
       0.000253610074  2  5  9 10  1  2
       0.000000000000  2  5  9 10  1  3
       0.000050762067  2  5  9 10  1  4
       0.000000000000  2  5  9 10  1  5
      -0.000061213680  2  5  9 10  1  6
      -0.000011199965  2  5  9 10  2  3
       0.000000000000  2  5  9 10  2  4
       0.000066089299  2  5  9 10  2  5
       0.000000000000  2  5  9 10  2  6
       0.000000000000  2  5  9 10  3  4
       0.000000000000  2  5  9 10  3  5
       0.000000405986  2  5  9 10  3  6
      -0.000000641333  2  5  9 10  4  5
       0.000000000000  2  5  9 10  4  6
      -0.000000425008  2  5  9 10  5  6
       0.000000000000  2  5  9 10  7  8
      -0.000000729041  2  5  9 10  9 10
       0.000000000000  2  6  7  8  1  2
      -0.000154359814  2  6  7  8  1  3
       0.000000000000  2  6  7  8  1  4
      -0.000051887531  2  6  7  8  1  5
       0.000000000000  2  6  7  8  1  6
       0.000000000000  2  6  7  8  2  3
       0.000087013615  2  6  7  8  2  4
       0.000000000000  2  6  7  8  2  5
       0.000187522371  2  6  7  8  2  6
       0.000000000000  2  6  7  8  3  4
       0.000000413271  2  6  7  8  3  5
       0.000000000000  2  6  7  8  3  6
       0.000000000000  2  6  7  8  4  5
      -0.000000493540  2  6  7  8  4  6
       0.000000000000  2  6  7  8  5  6
       0.000000000000  2  6  7  8  7  8
       0.000000000000  2  6  7  8  9 10
       0.000000000000  2  6  9 10  1  2
      -0.000154359814  2  6  9 10  1  3
       0.000000000000  2  6  9 10  1  4
      -0.000051887531  2  6  9 10  1  5
       0.000000000000  2  6  9 10  1  6
       0.000000000000  2  6  9 10  2  3
       0.000087013615  2  6  9 10  2  4
       0.000000000000  2  6  9 10  2  5
       0.000187522371  2  6  9 10  2  6
       0.000000000000  2  6  9 10  3  4
       0.000000413271  2  6  9 10  3  5
       0.000000000000  2  6  9 10  3  6
       0.000000000000  2  6  9 10  4  5
      -0.000000493540  2  6  9 10  4  6
       0.000000000000  2  6  9 10  5  6
       0.000000000000  2  6  9 10  7  8
       0.000000000000  2  6  9 10  9 10
      -0.000113938566  3  4  5  6  1  2
       0.000000000000  3  4  5  6  1  3
       0.000007368337  3  4  5  6  1  4
       0.000000000000  3  4  5  6  1  5
      -0.000013840065  3  4  5  6  1  6
       0.000001241318  3  4  5  6  2  3
       0.000000000000  3  4  5  6  2  4
       0.000010875205  3  4  5  6  2  5
       0.000000000000  3  4  5  6  2  6
      -0.000006362051  3  4  5  6  3  4
       0.000000000000  3  4  5  6  3  5
       0.000001380903  3  4  5  6  3  6
      -0.000000944067  3  4  5  6  4  5
       0.000000000000  3  4  5  6  4  6
       0.000008743478  3  4  5  6  5  6
       0.000000000000  3  4  5  6  7  8
       0.000000000000  3  4  5  6  9 10
      -0.000065773037  3  4  7  8  1  2
       0.000000000000  3  4  7  8  1  3
       0.000001000773  3  4  7  8  1  4
       0.000000000000  3  4  7  8  1  5
       0.000000334728  3  4  7  8  1  6
      -0.000000199272  3  4  7  8  2  3
       0.000000000000  3  4  7  8  2  4
      -0.000000272845  3  4  7  8  2  5
       0.000000000000  3  4  7  8  2  6
      -0.000001569275  3  4  7  8  3  4
       0.000000000000  3  4  7  8  3  5
      -0.000001134606  3  4  7  8  3  6
      -0.000000321053  3  4  7  8  4  5
       0.000000000000  3  4  7  8  4  6
       0.000000269697  3  4  7  8  5  6
       0.000004150528  3  4  7  8  7  8
       0.000000000000  3  4  7  8  9 10
      -0.000065773037  3  4  9 10  1  2
       0.000000000000  3  4  9 10  1  3
       0.000001000773  3  4  9 10  1  4
       0.000000000000  3  4  9 10  1  5
       0.000000334728  3  4  9 10  1  6
      -0.000000199272  3  4  9 10  2  3
       0.000000000000  3  4  9 10  2  4
      -0.000000272845  3  4  9 10  2  5
       0.000000000000  3  4  9 10  2  6
      -0.000001569275  3  4  9 10  3  4
       0.000000000000  3  4  9 10  3  5
      -0.000001134606  3  4  9 10  3  6
      -0.000000321053  3  4  9 10  4  5
       0.000000000000  3  4  9 10  4  6
       0.000000269697  3  4  9 10  5  6
       0.000000000000  3  4  9 10  7  8
       0.000004150528  3  4  9 10  9 10
       0.000000000000  3  5  7  8  1  2
      -0.000000698763  3  5  7  8  1  3
       0.000000000000  3  5  7  8  1  4
       0.000000459495  3  5  7  8  1  5
       0.000000000000  3  5  7  8  1  6
       0.000000000000  3  5  7  8  2  3
       0.000000857809  3  5  7  8  2  4
       0.000000000000  3  5  7  8  2  5
       0.000000164974  3  5  7  8  2  6
       0.000000000000  3  5  7  8  3  4
      -0.000000351085  3  5  7  8  3  5
       0.000000000000  3  5  7  8  3  6
       0.000000000000  3  5  7  8  4  5
       0.000000501042  3  5  7  8  4  6
       0.000000000000  3  5  7  8  5  6
       0.000000000000  3  5  7  8  7  8
       0.000000000000  3  5  7  8  9 10
       0.000000000000  3  5  9 10  1  2
      -0.000000698763  3  5  9 10  1  3
       0.000000000000  3  5  9 10  1  4
       0.000000459495  3  5  9 10  1  5
       0.000000000000  3  5  9 10  1  6
       0.000000000000  3  5  9 10  2  3
       0.000000857809  3  5  9 10  2  4
       0.000000000000  3  5  9 10  2  5
       0.000000164974  3  5  9 10  2  6
       0.000000000000  3  5  9 10  3  4
      -0.000000351085  3  5  9 10  3  5
       0.000000000000  3  5  9 10  3  6
       0.000000000000  3  5  9 10  4  5
       0.000000501042  3  5  9 10  4  6
       0.000000000000  3  5  9 10  5  6
       0.000000000000  3  5  9 10  7  8
       0.000000000000  3  5  9 10  9 10
      -0.000007106480  3  6  7  8  1  2
       0.000000000000  3  6  7  8  1  3
       0.000001775897  3  6  7  8  1  4
       0.000000000000  3  6  7  8  1  5
       0.000001792834  3  6  7  8  1  6
      -0.000002034163  3  6  7  8  2  3
       0.000000000000  3  6  7  8  2  4
       0.000000190340  3  6  7  8  2  5
       0.000000000000  3  6  7  8  2  6
      -0.000001279272  3  6  7  8  3  4
       0.000000000000  3  6  7  8  3  5
      -0.000001844863  3  6  7  8  3  6
       0.000000215605  3  6  7  8  4  5
       0.000000000000  3  6  7  8  4  6
      -0.000000142810  3  6  7  8  5  6
       0.000000549240  3  6  7  8  7  8
       0.000000000000  3  6  7  8  9 10
      -0.000007106480  3  6  9 10  1  2
       0.000000000000  3  6  9 10  1  3
       0.000001775897  3  6  9 10  1  4
       0.000000000000  3  6  9 10  1  5
       0.000001792834  3  6  9 10  1  6
      -0.000002034163  3  6  9 10  2  3
       0.000000000000  3  6  9 10  2  4
       0.000000190340  3  6  9 10  2  5
       0.000000000000  3  6  9 10  2  6
      -0.000001279272  3  6  9 10  3  4
       0.000000000000  3  6  9 10  3  5
      -0.000001844863  3  6  9 10  3  6
       0.000000215605  3  6  9 10  4  5
       0.000000000000  3  6  9 10  4  6
      -0.000000142810  3  6  9 10  5  6
       0.000000000000  3  6  9 10  7  8
       0.000000549240  3  6  9 10  9 10
      -0.000000707742  4  5  7  8  1  2
       0.000000000000  4  5  7  8  1  3
      -0.000001583546  4  5  7  8  1  4
       0.000000000000  4  5  7  8  1  5
       0.000000759483  4  5  7  8  1  6
       0.000000867754  4  5  7  8  2  3
       0.000000000000  4  5  7  8  2  4
      -0.000001383952  4  5  7  8  2  5
       0.000000000000  4  5  7  8  2  6
      -0.000000272345  4  5  7  8  3  4
       0.000000000000  4  5  7  8  3  5
       0.000000208120  4  5  7  8  3  6
      -0.000000324570  4  5  7  8  4  5
       0.000000000000  4  5  7  8  4  6
       0.000000000000  4  5  7  8  5  6
       0.000000069768  4  5  7  8  7  8
       0.000000000000  4  5  7  8  9 10
      -0.000000707742  4  5  9 10  1  2
       0.000000000000  4  5  9 10  1  3
      -0.000001583546  4  5  9 10  1  4
       0.000000000000  4  5  9 10  1  5
       0.000000759483  4  5  9 10  1  6
       0.000000867754  4  5  9 10  2  3
       0.000000000000  4  5  9 10  2  4
      -0.000001383952  4  5  9 10  2  5
       0.000000000000  4  5  9 10  2  6
      -0.000000272345  4  5  9 10  3  4
       0.000000000000  4  5  9 10  3  5
       0.000000208120  4  5  9 10  3  6
      -0.000000324570  4  5  9 10  4  5
       0.000000000000  4  5  9 10  4  6
       0.000000000000  4  5  9 10  5  6
       0.000000000000  4  5  9 10  7  8
       0.000000069768  4  5  9 10  9 10
       0.000000000000  4  6  7  8  1  2
       0.000003729374  4  6  7  8  1  3
       0.000000000000  4  6  7  8  1  4
       0.000000151936  4  6  7  8  1  5
       0.000000000000  4  6  7  8  1  6
       0.000000000000  4  6  7  8  2  3
      -0.000002652553  4  6  7  8  2  4
       0.000000000000  4  6  7  8  2  5
      -0.000003320169  4  6  7  8  2  6
       0.000000000000  4  6  7  8  3  4
       0.000000468717  4  6  7  8  3  5
       0.000000000000  4  6  7  8  3  6
       0.000000000000  4  6  7  8  4  5
      -0.000000634247  4  6  7  8  4  6
       0.000000000000  4  6  7  8  5  6
       0.000000000000  4  6  7  8  7  8
       0.000000000000  4  6  7  8  9 10
       0.000000000000  4  6  9 10  1  2
       0.000003729374  4  6  9 10  1  3
       0.000000000000  4  6  9 10  1  4
       0.000000151936  4  6  9 10  1  5
       0.000000000000  4  6  9 10  1  6
       0.000000000000  4  6  9 10  2  3
      -0.000002652553  4  6  9 10  2  4
       0.000000000000  4  6  9 10  2  5
      -0.000003320169  4  6  9 10  2  6
       0.000000000000  4  6  9 10  3  4
       0.000000468717  4  6  9 10  3  5
       0.000000000000  4  6  9 10  3  6
       0.000000000000  4  6  9 10  4  5
      -0.000000634247  4  6  9 10  4  6
       0.000000000000  4  6  9 10  5  6
       0.000000000000  4  6  9 10  7  8
       0.000000000000  4  6  9 10  9 10
       0.000013721592  5  6  7  8  1  2
       0.000000000000  5  6  7  8  1  3
      -0.000000768287  5  6  7  8  1  4
       0.000000000000  5  6  7  8  1  5
       0.000000574833  5  6  7  8  1  6
       0.000000302557  5  6  7  8  2  3
       0.000000000000  5  6  7  8  2  4
      -0.000000647081  5  6  7  8  2  5
       0.000000000000  5  6  7  8  2  6
       0.000000288552  5  6  7  8  3  4
       0.000000000000  5  6  7  8  3  5
      -0.000000147071  5  6  7  8  3  6
       0.000000073267  5  6  7  8  4  5
       0.000000000000  5  6  7  8  4  6
      -0.000000448526  5  6  7  8  5  6
      -0.000000230625  5  6  7  8  7  8
       0.000000000000  5  6  7  8  9 10
       0.000013721592  5  6  9 10  1  2
       0.000000000000  5  6  9 10  1  3
      -0.000000768287  5  6  9 10  1  4
       0.000000000000  5  6  9 10  1  5
       0.000000574833  5  6  9 10  1  6
       0.000000302557  5  6  9 10  2  3
       0.000000000000  5  6  9 10  2  4
      -0.000000647081  5  6  9 10  2  5
       0.000000000000  5  6  9 10  2  6
       0.000000288552  5  6  9 10  3  4
       0.000000000000  5  6  9 10  3  5
      -0.000000147071  5  6  9 10  3  6
       0.000000073267  5  6  9 10  4  5
       0.000000000000  5  6  9 10  4  6
      -0.000000448526  5  6  9 10  5  6
       0.000000000000  5  6  9 10  7  8
      -0.000000230625  5  6  9 10  9 10
       0.000008824883  7  8  9 10  1  2
       0.000000000000  7  8  9 10  1  3
      -0.000000442707  7  8  9 10  1  4
       0.000000000000  7  8  9 10  1  5
      -0.000000334830  7  8  9 10  1  6
       0.000000437756  7  8  9 10  2  3
       0.000000000000  7  8  9 10  2  4
       0.000000000000  7  8  9 10  2  5
       0.000000000000  7  8  9 10  2  6
       0.000000000000  7  8  9 10  3  4
       0.000000000000  7  8  9 10  3  5
       0.000000000000  7  8  9 10  3  6
       0.000000000000  7  8  9 10  4  5
       0.000000000000  7  8  9 10  4  6
       0.000000000000  7  8  9 10  5  6
      -0.000000212030  7  8  9 10  7  8
      -0.000000212030  7  8  9 10  9 10
      -0.002583090517  1  2  3  7  1  7
       0.000000000000  1  2  3  7  1  8
       0.000000000000  1  2  3  7  2  7
       0.002933022158  1  2  3  7  2  8
      -0.000008271858  1  2  3  7  3  7
       0.000000000000  1  2  3  7  3  8
       0.000000000000  1  2  3  7  4  7
       0.000005559676  1  2  3  7  4  8
      -0.000005950463  1  2  3  7  5  7
       0.000000000000  1  2  3  7  5  8
       0.000000000000  1  2  3  7  6  7
       0.000016947192  1  2  3  7  6  8
       0.000000000000  1  2  3  8  1  7
      -0.003396376942  1  2  3  8  1  8
       0.002984863588  1  2  3  8  2  7
       0.000000000000  1  2  3  8  2  8
       0.000000000000  1  2  3  8  3  7
      -0.000011193083  1  2  3  8  3  8
       0.000001922566  1  2  3  8  4  7
       0.000000000000  1  2  3  8  4  8
       0.000000000000  1  2  3  8  5  7
      -0.000006978818  1  2  3  8  5  8
       0.000012111628  1  2  3  8  6  7
       0.000000000000  1  2  3  8  6  8
       0.000000000000  1  2  4  7  1  7
       0.003592594560  1  2  4  7  1  8
      -0.003307179437  1  2  4  7  2  7
       0.000000000000  1  2  4  7  2  8
       0.000000000000  1  2  4  7  3  7
       0.000011835448  1  2  4  7  3  8
       0.000006890533  1  2  4  7  4  7
       0.000000000000  1  2  4  7  4  8
       0.000000000000  1  2  4  7  5  7
       0.000023429843  1  2  4  7  5  8
      -0.000027179136  1  2  4  7  6  7
       0.000000000000  1  2  4  7  6  8
       0.002612857553  1  2  4  8  1  7
       0.000000000000  1  2  4  8  1  8
       0.000000000000  1  2  4  8  2  7
      -0.002882007427  1  2  4  8  2  8
       0.000010076494  1  2  4  8  3  7
       0.000000000000  1  2  4  8  3  8
       0.000000000000  1  2  4  8  4  7
       0.000003896807  1  2  4  8  4  8
       0.000020437931  1  2  4  8  5  7
       0.000000000000  1  2  4  8  5  8
       0.000000000000  1  2  4  8  6  7
      -0.000032479080  1  2  4  8  6  8
       0.000072377467  1  2  5  7  1  7
       0.000000000000  1  2  5  7  1  8
       0.000000000000  1  2  5  7  2  7
      -0.000050811563  1  2  5  7  2  8
       0.000009195422  1  2  5  7  3  7
       0.000000000000  1  2  5  7  3  8
       0.000000000000  1  2  5  7  4  7
       0.000007808369  1  2  5  7  4  8
       0.000021124684  1  2  5  7  5  7
       0.000000000000  1  2  5  7  5  8
       0.000000000000  1  2  5  7  6  7
      -0.000027904348  1  2  5  7  6  8
       0.000000000000  1  2  5  8  1  7
       0.000055130194  1  2  5  8  1  8
      -0.000070297406  1  2  5  8  2  7
       0.000000000000  1  2  5  8  2  8
       0.000000000000  1  2  5  8  3  7
       0.000008804140  1  2  5  8  3  8
       0.000007327144  1  2  5  8  4  7
       0.000000000000  1  2  5  8  4  8
       0.000000000000  1  2  5  8  5  7
       0.000022643703  1  2  5  8  5  8
      -0.000023381599  1  2  5  8  6  7
       0.000000000000  1  2  5  8  6  8
       0.000000000000  1  2  6  7  1  7
       0.000060068770  1  2  6  7  1  8
      -0.000054074905  1  2  6  7  2  7
       0.000000000000  1  2  6  7  2  8
       0.000000000000  1  2  6  7  3  7
       0.000003641588  1  2  6  7  3  8
      -0.000010654470  1  2  6  7  4  7
       0.000000000000  1  2  6  7  4  8
       0.000000000000  1  2  6  7  5  7
      -0.000013971800  1  2  6  7  5  8
       0.000009859211  1  2  6  7  6  7
       0.000000000000  1  2  6  7  6  8
       0.000271751723  1  2  6  8  1  7
       0.000000000000  1  2  6  8  1  8
       0.000000000000  1  2  6  8  2  7
      -0.000307861933  1  2  6  8  2  8
       0.000004485509  1  2  6  8  3  7
       0.000000000000  1  2  6  8  3  8
       0.000000000000  1  2  6  8  4  7
      -0.000012232405  1  2  6  8  4  8
      -0.000011008766  1  2  6  8  5  7
       0.000000000000  1  2  6  8  5  8
       0.000000000000  1  2  6  8  6  7
       0.000008117488  1  2  6  8  6  8
      -0.000840167363  1  3  4  7  1  7
       0.000000000000  1  3  4  7  1  8
       0.000000000000  1  3  4  7  2  7
       0.000996512561  1  3  4  7  2  8
      -0.000000225397  1  3  4  7  3  7
       0.000000000000  1  3  4  7  3  8
       0.000000000000  1  3  4  7  4  7
      -0.000000142984  1  3  4  7  4  8
      -0.000001920261  1  3  4  7  5  7
       0.000000000000  1  3  4  7  5  8
       0.000000000000  1  3  4  7  6  7
       0.000003503245  1  3  4  7  6  8
       0.000000000000  1  3  4  8  1  7
      -0.001235849549  1  3  4  8  1  8
       0.001039546314  1  3  4  8  2  7
       0.000000000000  1  3  4  8  2  8
       0.000000000000  1  3  4  8  3  7
      -0.000001803056  1  3  4  8  3  8
      -0.000001165212  1  3  4  8  4  7
       0.000000000000  1  3  4  8  4  8
       0.000000000000  1  3  4  8  5  7
      -0.000003375778  1  3  4  8  5  8
       0.000002862556  1  3  4  8  6  7
       0.000000000000  1  3  4  8  6  8
       0.000000000000  1  3  5  7  1  7
       0.000014351015  1  3  5  7  1  8
      -0.000009945603  1  3  5  7  2  7
       0.000000000000  1  3  5  7  2  8
       0.000000000000  1  3  5  7  3  7
      -0.000001700706  1  3  5  7  3  8
       0.000000903287  1  3  5  7  4  7
       0.000000000000  1  3  5  7  4  8
       0.000000000000  1  3  5  7  5  7
      -0.000000445039  1  3  5  7  5  8
       0.000000823580  1  3  5  7  6  7
       0.000000000000  1  3  5  7  6  8
       0.000016010909  1  3  5  8  1  7
       0.000000000000  1  3  5  8  1  8
       0.000000000000  1  3  5  8  2  7
      -0.000022496760  1  3  5  8  2  8
      -0.000001878268  1  3  5  8  3  7
       0.000000000000  1  3  5  8  3  8
       0.000000000000  1  3  5  8  4  7
       0.000001253311  1  3  5  8  4  8
      -0.000000496953  1  3  5  8  5  7
       0.000000000000  1  3  5  8  5  8
       0.000000000000  1  3  5  8  6  7
       0.000001743388  1  3  5  8  6  8
      -0.000075830215  1  3  6  7  1  7
       0.000000000000  1  3  6  7  1  8
       0.000000000000  1  3  6  7  2  7
       0.000084214390  1  3  6  7  2  8
      -0.000006145477  1  3  6  7  3  7
       0.000000000000  1  3  6  7  3  8
       0.000000000000  1  3  6  7  4  7
       0.000005043684  1  3  6  7  4  8
      -0.000000836619  1  3  6  7  5  7
       0.000000000000  1  3  6  7  5  8
       0.000000000000  1  3  6  7  6  7
       0.000007161623  1  3  6  7  6  8
       0.000000000000  1  3  6  8  1  7
      -0.000113533776  1  3  6  8  1  8
       0.000098229903  1  3  6  8  2  7
       0.000000000000  1  3  6  8  2  8
       0.000000000000  1  3  6  8  3  7
      -0.000007283922  1  3  6  8  3  8
       0.000004300479  1  3  6  8  4  7
       0.000000000000  1  3  6  8  4  8
       0.000000000000  1  3  6  8  5  7
      -0.000000946724  1  3  6  8  5  8
       0.000006512393  1  3  6  8  6  7
       0.000000000000  1  3  6  8  6  8
       0.000002274644  1  4  5  7  1  7
       0.000000000000  1  4  5  7  1  8
       0.000000000000  1  4  5  7  2  7
      -0.000009489537  1  4  5  7  2  8
      -0.000000663243  1  4  5  7  3  7
       0.000000000000  1  4  5  7  3  8
       0.000000000000  1  4  5  7  4  7
      -0.000004057685  1  4  5  7  4  8
      -0.000006188406  1  4  5  7  5  7
       0.000000000000  1  4  5  7  5  8
       0.000000000000  1  4  5  7  6  7
       0.000007336432  1  4  5  7  6  8
       0.000000000000  1  4  5  8  1  7
       0.000010825785  1  4  5  8  1  8
      -0.000007453862  1  4  5  8  2  7
       0.000000000000  1  4  5  8  2  8
       0.000000000000  1  4  5  8  3  7
      -0.000001081494  1  4  5  8  3  8
      -0.000003365937  1  4  5  8  4  7
       0.000000000000  1  4  5  8  4  8
       0.000000000000  1  4  5  8  5  7
      -0.000007254300  1  4  5  8  5  8
       0.000006480480  1  4  5  8  6  7
       0.000000000000  1  4  5  8  6  8
       0.000000000000  1  4  6  7  1  7
       0.000049735451  1  4  6  7  1  8
      -0.000045579701  1  4  6  7  2  7
       0.000000000000  1  4  6  7  2  8
       0.000000000000  1  4  6  7  3  7
       0.000007371842  1  4  6  7  3  8
      -0.000001694416  1  4  6  7  4  7
       0.000000000000  1  4  6  7  4  8
       0.000000000000  1  4  6  7  5  7
       0.000006184160  1  4  6  7  5  8
      -0.000011422812  1  4  6  7  6  7
       0.000000000000  1  4  6  7  6  8
       0.000030516930  1  4  6  8  1  7
       0.000000000000  1  4  6  8  1  8
       0.000000000000  1  4  6  8  2  7
      -0.000028272906  1  4  6  8  2  8
       0.000004497451  1  4  6  8  3  7
       0.000000000000  1  4  6  8  3  8
       0.000000000000  1  4  6  8  4  7
       0.000000000000  1  4  6  8  4  8
       0.000005412590  1  4  6  8  5  7
       0.000000000000  1  4  6  8  5  8
       0.000000000000  1  4  6  8  6  7
      -0.000010598700  1  4  6  8  6  8
       0.000038746631  1  5  6  7  1  7
       0.000000000000  1  5  6  7  1  8
       0.000000000000  1  5  6  7  2  7
      -0.000046319116  1  5  6  7  2  8
       0.000000920666  1  5  6  7  3  7
       0.000000000000  1  5  6  7  3  8
       0.000000000000  1  5  6  7  4  7
      -0.000000125611  1  5  6  7  4  8
       0.000000891435  1  5  6  7  5  7
       0.000000000000  1  5  6  7  5  8
       0.000000000000  1  5  6  7  6  7
      -0.000001747483  1  5  6  7  6  8
       0.000000000000  1  5  6  8  1  7
       0.000063577884  1  5  6  8  1  8
      -0.000052811167  1  5  6  8  2  7
       0.000000000000  1  5  6  8  2  8
       0.000000000000  1  5  6  8  3  7
       0.000000669169  1  5  6  8  3  8
       0.000000297228  1  5  6  8  4  7
       0.000000000000  1  5  6  8  4  8
       0.000000000000  1  5  6  8  5  7
       0.000001223164  1  5  6  8  5  8
      -0.000001599337  1  5  6  8  6  7
       0.000000000000  1  5  6  8  6  8
       0.000044694100  1  7  9 10  1  7
       0.000000000000  1  7  9 10  1  8
       0.000000000000  1  7  9 10  2  7
      -0.000054129709  1  7  9 10  2  8
       0.000000147111  1  7  9 10  3  7
       0.000000000000  1  7  9 10  3  8
       0.000000000000  1  7  9 10  4  7
       0.000000000000  1  7  9 10  4  8
       0.000000154902  1  7  9 10  5  7
       0.000000000000  1  7  9 10  5  8
       0.000000000000  1  7  9 10  6  7
      -0.000000370263  1  7  9 10  6  8
       0.000000000000  1  8  9 10  1  7
       0.000070451280  1  8  9 10  1  8
      -0.000058576220  1  8  9 10  2  7
       0.000000000000  1  8  9 10  2  8
       0.000000000000  1  8  9 10  3  7
       0.000000000000  1  8  9 10  3  8
       0.000000185742  1  8  9 10  4  7
       0.000000000000  1  8  9 10  4  8
       0.000000000000  1  8  9 10  5  7
       0.000000295845  1  8  9 10  5  8
      -0.000000194795  1  8  9 10  6  7
       0.000000000000  1  8  9 10  6  8
       0.000000000000  2  3  4  7  1  7
       0.001053527677  2  3  4  7  1  8
      -0.000885499910  2  3  4  7  2  7
       0.000000000000  2  3  4  7  2  8
       0.000000000000  2  3  4  7  3  7
       0.000006205605  2  3  4  7  3  8
      -0.000000339891  2  3  4  7  4  7
       0.000000000000  2  3  4  7  4  8
       0.000000000000  2  3  4  7  5  7
       0.000006819580  2  3  4  7  5  8
      -0.000010024210  2  3  4  7  6  7
       0.000000000000  2  3  4  7  6  8
       0.000968119924  2  3  4  8  1  7
       0.000000000000  2  3  4  8  1  8
       0.000000000000  2  3  4  8  2  7
      -0.001142231116  2  3  4  8  2  8
       0.000006449115  2  3  4  8  3  7
       0.000000000000  2  3  4  8  3  8
       0.000000000000  2  3  4  8  4  7
      -0.000001364102  2  3  4  8  4  8
       0.000007045596  2  3  4  8  5  7
       0.000000000000  2  3  4  8  5  8
       0.000000000000  2  3  4  8  6  7
      -0.000014824940  2  3  4  8  6  8
      -0.000025214476  2  3  5  7  1  7
       0.000000000000  2  3  5  7  1  8
       0.000000000000  2  3  5  7  2  7
       0.000036923716  2  3  5  7  2  8
       0.000001583000  2  3  5  7  3  7
       0.000000000000  2  3  5  7  3  8
       0.000000000000  2  3  5  7  4  7
       0.000003163454  2  3  5  7  4  8
       0.000006011383  2  3  5  7  5  7
       0.000000000000  2  3  5  7  5  8
       0.000000000000  2  3  5  7  6  7
      -0.000008102273  2  3  5  7  6  8
       0.000000000000  2  3  5  8  1  7
      -0.000038323090  2  3  5  8  1  8
       0.000032170286  2  3  5  8  2  7
       0.000000000000  2  3  5  8  2  8
       0.000000000000  2  3  5  8  3  7
       0.000001728272  2  3  5  8  3  8
       0.000003183208  2  3  5  8  4  7
       0.000000000000  2  3  5  8  4  8
       0.000000000000  2  3  5  8  5  7
       0.000007837094  2  3  5  8  5  8
      -0.000007748774  2  3  5  8  6  7
       0.000000000000  2  3  5  8  6  8
       0.000000000000  2  3  6  7  1  7
       0.000099721306  2  3  6  7  1  8
      -0.000088719053  2  3  6  7  2  7
       0.000000000000  2  3  6  7  2  8
       0.000000000000  2  3  6  7  3  7
      -0.000006012383  2  3  6  7  3  8
       0.000001567511  2  3  6  7  4  7
       0.000000000000  2  3  6  7  4  8
       0.000000000000  2  3  6  7  5  7
      -0.000004698839  2  3  6  7  5  8
       0.000008651087  2  3  6  7  6  7
       0.000000000000  2  3  6  7  6  8
       0.000103829223  2  3  6  8  1  7
       0.000000000000  2  3  6  8  1  8
       0.000000000000  2  3  6  8  2  7
      -0.000124116617  2  3  6  8  2  8
      -0.000005223269  2  3  6  8  3  7
       0.000000000000  2  3  6  8  3  8
       0.000000000000  2  3  6  8  4  7
       0.000001264939  2  3  6  8  4  8
      -0.000004578747  2  3  6  8  5  7
       0.000000000000  2  3  6  8  5  8
       0.000000000000  2  3  6  8  6  7
       0.000010497115  2  3  6  8  6  8
       0.000000000000  2  4  5  7  1  7
       0.000008136018  2  4  5  7  1  8
      -0.000010451962  2  4  5  7  2  7
       0.000000000000  2  4  5  7  2  8
       0.000000000000  2  4  5  7  3  7
       0.000001508943  2  4  5  7  3  8
      -0.000001141679  2  4  5  7  4  7
       0.000000000000  2  4  5  7  4  8
       0.000000000000  2  4  5  7  5  7
      -0.000000078672  2  4  5  7  5  8
       0.000000076137  2  4  5  7  6  7
       0.000000000000  2  4  5  7  6  8
       0.000003631675  2  4  5  8  1  7
       0.000000000000  2  4  5  8  1  8
       0.000000000000  2  4  5  8  2  7
      -0.000001124741  2  4  5  8  2  8
       0.000001291545  2  4  5  8  3  7
       0.000000000000  2  4  5  8  3  8
       0.000000000000  2  4  5  8  4  7
      -0.000000441411  2  4  5  8  4  8
       0.000000745763  2  4  5  8  5  7
       0.000000000000  2  4  5  8  5  8
       0.000000000000  2  4  5  8  6  7
      -0.000001276155  2  4  5  8  6  8
      -0.000062056929  2  4  6  7  1  7
       0.000000000000  2  4  6  7  1  8
       0.000000000000  2  4  6  7  2  7
       0.000069532290  2  4  6  7  2  8
       0.000008141276  2  4  6  7  3  7
       0.000000000000  2  4  6  7  3  8
       0.000000000000  2  4  6  7  4  7
      -0.000006519713  2  4  6  7  4  8
       0.000000844896  2  4  6  7  5  7
       0.000000000000  2  4  6  7  5  8
       0.000000000000  2  4  6  7  6  7
      -0.000008433731  2  4  6  7  6  8
       0.000000000000  2  4  6  8  1  7
      -0.000048656936  2  4  6  8  1  8
       0.000045321040  2  4  6  8  2  7
       0.000000000000  2  4  6  8  2  8
       0.000000000000  2  4  6  8  3  7
       0.000006940190  2  4  6  8  3  8
      -0.000004676085  2  4  6  8  4  7
       0.000000000000  2  4  6  8  4  8
       0.000000000000  2  4  6  8  5  7
       0.000000142770  2  4  6  8  5  8
      -0.000005579772  2  4  6  8  6  7
       0.000000000000  2  4  6  8  6  8
       0.000000000000  2  5  6  7  1  7
      -0.000064809182  2  5  6  7  1  8
       0.000055193161  2  5  6  7  2  7
       0.000000000000  2  5  6  7  2  8
       0.000000000000  2  5  6  7  3  7
       0.000000306224  2  5  6  7  3  8
      -0.000000329741  2  5  6  7  4  7
       0.000000000000  2  5  6  7  4  8
       0.000000000000  2  5  6  7  5  7
      -0.000000139398  2  5  6  7  5  8
      -0.000000208624  2  5  6  7  6  7
       0.000000000000  2  5  6  7  6  8
      -0.000060459454  2  5  6  8  1  7
       0.000000000000  2  5  6  8  1  8
       0.000000000000  2  5  6  8  2  7
       0.000071591680  2  5  6  8  2  8
       0.000000000000  2  5  6  8  3  7
       0.000000000000  2  5  6  8  3  8
       0.000000000000  2  5  6  8  4  7
       0.000000160308  2  5  6  8  4  8
       0.000000071458  2  5  6  8  5  7
       0.000000000000  2  5  6  8  5  8
       0.000000000000  2  5  6  8  6  7
       0.000000000000  2  5  6  8  6  8
       0.000000000000  2  7  9 10  1  7
      -0.000060933114  2  7  9 10  1  8
       0.000050321608  2  7  9 10  2  7
       0.000000000000  2  7  9 10  2  8
       0.000000000000  2  7  9 10  3  7
       0.000000000000  2  7  9 10  3  8
      -0.000000206907  2  7  9 10  4  7
       0.000000000000  2  7  9 10  4  8
       0.000000000000  2  7  9 10  5  7
      -0.000000273894  2  7  9 10  5  8
       0.000000151722  2  7  9 10  6  7
       0.000000000000  2  7  9 10  6  8
      -0.000056529339  2  8  9 10  1  7
       0.000000000000  2  8  9 10  1  8
       0.000000000000  2  8  9 10  2  7
       0.000067686238  2  8  9 10  2  8
      -0.000000167572  2  8  9 10  3  7
       0.000000000000  2  8  9 10  3  8
       0.000000000000  2  8  9 10  4  7
       0.000000000000  2  8  9 10  4  8
      -0.000000265760  2  8  9 10  5  7
       0.000000000000  2  8  9 10  5  8
       0.000000000000  2  8  9 10  6  7
       0.000000524984  2  8  9 10  6  8
      -0.000003585616  3  4  5  7  1  7
       0.000000000000  3  4  5  7  1  8
       0.000000000000  3  4  5  7  2  7
       0.000005322135  3  4  5  7  2  8
      -0.000000310043  3  4  5  7  3  7
       0.000000000000  3  4  5  7  3  8
       0.000000000000  3  4  5  7  4  7
       0.000001690637  3  4  5  7  4  8
       0.000001864485  3  4  5  7  5  7
       0.000000000000  3  4  5  7  5  8
       0.000000000000  3  4  5  7  6  7
      -0.000002005404  3  4  5  7  6  8
       0.000000000000  3  4  5  8  1  7
      -0.000005712657  3  4  5  8  1  8
       0.000005023231  3  4  5  8  2  7
       0.000000000000  3  4  5  8  2  8
       0.000000000000  3  4  5  8  3  7
      -0.000000498454  3  4  5  8  3  8
       0.000001672207  3  4  5  8  4  7
       0.000000000000  3  4  5  8  4  8
       0.000000000000  3  4  5  8  5  7
       0.000002608785  3  4  5  8  5  8
      -0.000001966912  3  4  5  8  6  7
       0.000000000000  3  4  5  8  6  8
       0.000000000000  3  4  6  7  1  7
       0.000003347402  3  4  6  7  1  8
      -0.000003492934  3  4  6  7  2  7
       0.000000000000  3  4  6  7  2  8
       0.000000000000  3  4  6  7  3  7
      -0.000004520026  3  4  6  7  3  8
       0.000001844334  3  4  6  7  4  7
       0.000000000000  3  4  6  7  4  8
       0.000000000000  3  4  6  7  5  7
      -0.000002088841  3  4  6  7  5  8
       0.000005098031  3  4  6  7  6  7
       0.000000000000  3  4  6  7  6  8
       0.000005582624  3  4  6  8  1  7
       0.000000000000  3  4  6  8  1  8
       0.000000000000  3  4  6  8  2  7
      -0.000009136205  3  4  6  8  2  8
      -0.000004376417  3  4  6  8  3  7
       0.000000000000  3  4  6  8  3  8
       0.000000000000  3  4  6  8  4  7
       0.000002508913  3  4  6  8  4  8
      -0.000002050673  3  4  6  8  5  7
       0.000000000000  3  4  6  8  5  8
       0.000000000000  3  4  6  8  6  7
       0.000007076168  3  4  6  8  6  8
       0.000002627961  3  5  6  7  1  7
       0.000000000000  3  5  6  7  1  8
       0.000000000000  3  5  6  7  2  7
      -0.000003336598  3  5  6  7  2  8
      -0.000000331598  3  5  6  7  3  7
       0.000000000000  3  5  6  7  3  8
       0.000000000000  3  5  6  7  4  7
       0.000000155094  3  5  6  7  4  8
      -0.000000206033  3  5  6  7  5  7
       0.000000000000  3  5  6  7  5  8
       0.000000000000  3  5  6  7  6  7
       0.000000563014  3  5  6  7  6  8
       0.000000000000  3  5  6  8  1  7
       0.000003475669  3  5  6  8  1  8
      -0.000003060576  3  5  6  8  2  7
       0.000000000000  3  5  6  8  2  8
       0.000000000000  3  5  6  8  3  7
      -0.000000437297  3  5  6  8  3  8
       0.000000142190  3  5  6  8  4  7
       0.000000000000  3  5  6  8  4  8
       0.000000000000  3  5  6  8  5  7
      -0.000000275936  3  5  6  8  5  8
       0.000000566323  3  5  6  8  6  7
       0.000000000000  3  5  6  8  6  8
       0.000000215022  3  7  9 10  1  7
       0.000000000000  3  7  9 10  1  8
       0.000000000000  3  7  9 10  2  7
      -0.000000348588  3  7  9 10  2  8
      -0.000000282097  3  7  9 10  3  7
       0.000000000000  3  7  9 10  3  8
       0.000000000000  3  7  9 10  4  7
       0.000000285022  3  7  9 10  4  8
       0.000000000000  3  7  9 10  5  7
       0.000000000000  3  7  9 10  5  8
       0.000000000000  3  7  9 10  6  7
       0.000000257356  3  7  9 10  6  8
       0.000000000000  3  8  9 10  1  7
       0.000000084950  3  8  9 10  1  8
      -0.000000119544  3  8  9 10  2  7
       0.000000000000  3  8  9 10  2  8
       0.000000000000  3  8  9 10  3  7
      -0.000000412829  3  8  9 10  3  8
       0.000000280754  3  8  9 10  4  7
       0.000000000000  3  8  9 10  4  8
       0.000000000000  3  8  9 10  5  7
       0.000000000000  3  8  9 10  5  8
       0.000000253395  3  8  9 10  6  7
       0.000000000000  3  8  9 10  6  8
       0.000000000000  4  5  6  7  1  7
       0.000001281958  4  5  6  7  1  8
      -0.000001073218  4  5  6  7  2  7
       0.000000000000  4  5  6  7  2  8
       0.000000000000  4  5  6  7  3  7
       0.000000188254  4  5  6  7  3  8
      -0.000000144724  4  5  6  7  4  7
       0.000000000000  4  5  6  7  4  8
       0.000000000000  4  5  6  7  5  7
      -0.000000084068  4  5  6  7  5  8
      -0.000000078474  4  5  6  7  6  7
       0.000000000000  4  5  6  7  6  8
       0.000001071559  4  5  6  8  1  7
       0.000000000000  4  5  6  8  1  8
       0.000000000000  4  5  6  8  2  7
      -0.000001250572  4  5  6  8  2  8
       0.000000224248  4  5  6  8  3  7
       0.000000000000  4  5  6  8  3  8
       0.000000000000  4  5  6  8  4  7
      -0.000000322380  4  5  6  8  4  8
      -0.000000113876  4  5  6  8  5  7
       0.000000000000  4  5  6  8  5  8
       0.000000000000  4  5  6  8  6  7
      -0.000000134616  4  5  6  8  6  8
       0.000000000000  4  7  9 10  1  7
       0.000001042243  4  7  9 10  1  8
      -0.000000828593  4  7  9 10  2  7
       0.000000000000  4  7  9 10  2  8
       0.000000000000  4  7  9 10  3  7
       0.000000240477  4  7  9 10  3  8
      -0.000000209394  4  7  9 10  4  7
       0.000000000000  4  7  9 10  4  8
       0.000000000000  4  7  9 10  5  7
      -0.000000080870  4  7  9 10  5  8
      -0.000000091562  4  7  9 10  6  7
       0.000000000000  4  7  9 10  6  8
       0.000000806483  4  8  9 10  1  7
       0.000000000000  4  8  9 10  1  8
       0.000000000000  4  8  9 10  2  7
      -0.000000936616  4  8  9 10  2  8
       0.000000256597  4  8  9 10  3  7
       0.000000000000  4  8  9 10  3  8
       0.000000000000  4  8  9 10  4  7
      -0.000000299814  4  8  9 10  4  8
      -0.000000081825  4  8  9 10  5  7
       0.000000000000  4  8  9 10  5  8
       0.000000000000  4  8  9 10  6  7
      -0.000000147476  4  8  9 10  6  8
       0.000000133968  5  7  9 10  1  7
       0.000000000000  5  7  9 10  1  8
       0.000000000000  5  7  9 10  2  7
      -0.000000226213  5  7  9 10  2  8
       0.000000000000  5  7  9 10  3  7
       0.000000000000  5  7  9 10  3  8
       0.000000000000  5  7  9 10  4  7
      -0.000000089921  5  7  9 10  4  8
      -0.000000083413  5  7  9 10  5  7
       0.000000000000  5  7  9 10  5  8
       0.000000000000  5  7  9 10  6  7
       0.000000095241  5  7  9 10  6  8
       0.000000000000  5  8  9 10  1  7
       0.000000264656  5  8  9 10  1  8
      -0.000000231524  5  8  9 10  2  7
       0.000000000000  5  8  9 10  2  8
       0.000000000000  5  8  9 10  3  7
       0.000000000000  5  8  9 10  3  8
      -0.000000090330  5  8  9 10  4  7
       0.000000000000  5  8  9 10  4  8
       0.000000000000  5  8  9 10  5  7
      -0.000000120941  5  8  9 10  5  8
       0.000000096911  5  8  9 10  6  7
       0.000000000000  5  8  9 10  6  8
       0.000000000000  6  7  9 10  1  7
      -0.000000323388  6  7  9 10  1  8
       0.000000321252  6  7  9 10  2  7
       0.000000000000  6  7  9 10  2  8
       0.000000000000  6  7  9 10  3  7
       0.000000263233  6  7  9 10  3  8
      -0.000000122825  6  7  9 10  4  7
       0.000000000000  6  7  9 10  4  8
       0.000000000000  6  7  9 10  5  7
       0.000000098150  6  7  9 10  5  8
      -0.000000275377  6  7  9 10  6  7
       0.000000000000  6  7  9 10  6  8
      -0.000000500968  6  8  9 10  1  7
       0.000000000000  6  8  9 10  1  8
       0.000000000000  6  8  9 10  2  7
       0.000000767454  6  8  9 10  2  8
       0.000000265172  6  8  9 10  3  7
       0.000000000000  6  8  9 10  3  8
       0.000000000000  6  8  9 10  4  7
      -0.000000188802  6  8  9 10  4  8
       0.000000097192  6  8  9 10  5  7
       0.000000000000  6  8  9 10  5  8
       0.000000000000  6  8  9 10  6  7
      -0.000000409841  6  8  9 10  6  8
      -0.002583090517  1  2  3  9  1  9
       0.000000000000  1  2  3  9  1 10
       0.000000000000  1  2  3  9  2  9
       0.002933022158  1  2  3  9  2 10
      -0.000008271858  1  2  3  9  3  9
       0.000000000000  1  2  3  9  3 10
       0.000000000000  1  2  3  9  4  9
       0.000005559676  1  2  3  9  4 10
      -0.000005950463  1  2  3  9  5  9
       0.000000000000  1  2  3  9  5 10
       0.000000000000  1  2  3  9  6  9
       0.000016947192  1  2  3  9  6 10
       0.000000000000  1  2  3 10  1  9
      -0.003396376942  1  2  3 10  1 10
       0.002984863588  1  2  3 10  2  9
       0.000000000000  1  2  3 10  2 10
       0.000000000000  1  2  3 10  3  9
      -0.000011193083  1  2  3 10  3 10
       0.000001922566  1  2  3 10  4  9
       0.000000000000  1  2  3 10  4 10
       0.000000000000  1  2  3 10  5  9
      -0.000006978818  1  2  3 10  5 10
       0.000012111628  1  2  3 10  6  9
       0.000000000000  1  2  3 10  6 10
       0.000000000000  1  2  4  9  1  9
       0.003592594560  1  2  4  9  1 10
      -0.003307179437  1  2  4  9  2  9
       0.000000000000  1  2  4  9  2 10
       0.000000000000  1  2  4  9  3  9
       0.000011835448  1  2  4  9  3 10
       0.000006890533  1  2  4  9  4  9
       0.000000000000  1  2  4  9  4 10
       0.000000000000  1  2  4  9  5  9
       0.000023429843  1  2  4  9  5 10
      -0.000027179136  1  2  4  9  6  9
       0.000000000000  1  2  4  9  6 10
       0.002612857553  1  2  4 10  1  9
       0.000000000000  1  2  4 10  1 10
       0.000000000000  1  2  4 10  2  9
      -0.002882007427  1  2  4 10  2 10
       0.000010076494  1  2  4 10  3  9
       0.000000000000  1  2  4 10  3 10
       0.000000000000  1  2  4 10  4  9
       0.000003896807  1  2  4 10  4 10
       0.000020437931  1  2  4 10  5  9
       0.000000000000  1  2  4 10  5 10
       0.000000000000  1  2  4 10  6  9
      -0.000032479080  1  2  4 10  6 10
       0.000072377467  1  2  5  9  1  9
       0.000000000000  1  2  5  9  1 10
       0.000000000000  1  2  5  9  2  9
      -0.000050811563  1  2  5  9  2 10
       0.000009195422  1  2  5  9  3  9
       0.000000000000  1  2  5  9  3 10
       0.000000000000  1  2  5  9  4  9
       0.000007808369  1  2  5  9  4 10
       0.000021124684  1  2  5  9  5  9
       0.000000000000  1  2  5  9  5 10
       0.000000000000  1  2  5  9  6  9
      -0.000027904348  1  2  5  9  6 10
       0.000000000000  1  2  5 10  1  9
       0.000055130194  1  2  5 10  1 10
      -0.000070297406  1  2  5 10  2  9
       0.000000000000  1  2  5 10  2 10
       0.000000000000  1  2  5 10  3  9
       0.000008804140  1  2  5 10  3 10
       0.000007327144  1  2  5 10  4  9
       0.000000000000  1  2  5 10  4 10
       0.000000000000  1  2  5 10  5  9
       0.000022643703  1  2  5 10  5 10
      -0.000023381599  1  2  5 10  6  9
       0.000000000000  1  2  5 10  6 10
       0.000000000000  1  2  6  9  1  9
       0.000060068770  1  2  6  9  1 10
      -0.000054074905  1  2  6  9  2  9
       0.000000000000  1  2  6  9  2 10
       0.000000000000  1  2  6  9  3  9
       0.000003641588  1  2  6  9  3 10
      -0.000010654470  1  2  6  9  4  9
       0.000000000000  1  2  6  9  4 10
       0.000000000000  1  2  6  9  5  9
      -0.000013971800  1  2  6  9  5 10
       0.000009859211  1  2  6  9  6  9
       0.000000000000  1  2  6  9  6 10
       0.000271751723  1  2  6 10  1  9
       0.000000000000  1  2  6 10  1 10
       0.000000000000  1  2  6 10  2  9
      -0.000307861933  1  2  6 10  2 10
       0.000004485509  1  2  6 10  3  9
       0.000000000000  1  2  6 10  3 10
       0.000000000000  1  2  6 10  4  9
      -0.000012232405  1  2  6 10  4 10
      -0.000011008766  1  2  6 10  5  9
       0.000000000000  1  2  6 10  5 10
       0.000000000000  1  2  6 10  6  9
       0.000008117488  1  2  6 10  6 10
      -0.000840167363  1  3  4  9  1  9
       0.000000000000  1  3  4  9  1 10
       0.000000000000  1  3  4  9  2  9
       0.000996512561  1  3  4  9  2 10
      -0.000000225397  1  3  4  9  3  9
       0.000000000000  1  3  4  9  3 10
       0.000000000000  1  3  4  9  4  9
      -0.000000142984  1  3  4  9  4 10
      -0.000001920261  1  3  4  9  5  9
       0.000000000000  1  3  4  9  5 10
       0.000000000000  1  3  4  9  6  9
       0.000003503245  1  3  4  9  6 10
       0.000000000000  1  3  4 10  1  9
      -0.001235849549  1  3  4 10  1 10
       0.001039546314  1  3  4 10  2  9
       0.000000000000  1  3  4 10  2 10
       0.000000000000  1  3  4 10  3  9
      -0.000001803056  1  3  4 10  3 10
      -0.000001165212  1  3  4 10  4  9
       0.000000000000  1  3  4 10  4 10
       0.000000000000  1  3  4 10  5  9
      -0.000003375778  1  3  4 10  5 10
       0.000002862556  1  3  4 10  6  9
       0.000000000000  1  3  4 10  6 10
       0.000000000000  1  3  5  9  1  9
       0.000014351015  1  3  5  9  1 10
      -0.000009945603  1  3  5  9  2  9
       0.000000000000  1  3  5  9  2 10
       0.000000000000  1  3  5  9  3  9
      -0.000001700706  1  3  5  9  3 10
       0.000000903287  1  3  5  9  4  9
       0.000000000000  1  3  5  9  4 10
       0.000000000000  1  3  5  9  5  9
      -0.000000445039  1  3  5  9  5 10
       0.000000823580  1  3  5  9  6  9
       0.000000000000  1  3  5  9  6 10
       0.000016010909  1  3  5 10  1  9
       0.000000000000  1  3  5 10  1 10
       0.000000000000  1  3  5 10  2  9
      -0.000022496760  1  3  5 10  2 10
      -0.000001878268  1  3  5 10  3  9
       0.000000000000  1  3  5 10  3 10
       0.000000000000  1  3  5 10  4  9
       0.000001253311  1  3  5 10  4 10
      -0.000000496953  1  3  5 10  5  9
       0.000000000000  1  3  5 10  5 10
       0.000000000000  1  3  5 10  6  9
       0.000001743388  1  3  5 10  6 10
      -0.000075830215  1  3  6  9  1  9
       0.000000000000  1  3  6  9  1 10
       0.000000000000  1  3  6  9  2  9
       0.000084214390  1  3  6  9  2 10
      -0.000006145477  1  3  6  9  3  9
       0.000000000000  1  3  6  9  3 10
       0.000000000000  1  3  6  9  4  9
       0.000005043684  1  3  6  9  4 10
      -0.000000836619  1  3  6  9  5  9
       0.000000000000  1  3  6  9  5 10
       0.000000000000  1  3  6  9  6  9
       0.000007161623  1  3  6  9  6 10
       0.000000000000  1  3  6 10  1  9
      -0.000113533776  1  3  6 10  1 10
       0.000098229903  1  3  6 10  2  9
       0.000000000000  1  3  6 10  2 10
       0.000000000000  1  3  6 10  3  9
      -0.000007283922  1  3  6 10  3 10
       0.000004300479  1  3  6 10  4  9
       0.000000000000  1  3  6 10  4 10
       0.000000000000  1  3  6 10  5  9
      -0.000000946724  1  3  6 10  5 10
       0.000006512393  1  3  6 10  6  9
       0.000000000000  1  3  6 10  6 10
       0.000002274644  1  4  5  9  1  9
       0.000000000000  1  4  5  9  1 10
       0.000000000000  1  4  5  9  2  9
      -0.000009489537  1  4  5  9  2 10
      -0.000000663243  1  4  5  9  3  9
       0.000000000000  1  4  5  9  3 10
       0.000000000000  1  4  5  9  4  9
      -0.000004057685  1  4  5  9  4 10
      -0.000006188406  1  4  5  9  5  9
       0.000000000000  1  4  5  9  5 10
       0.000000000000  1  4  5  9  6  9
       0.000007336432  1  4  5  9  6 10
       0.000000000000  1  4  5 10  1  9
       0.000010825785  1  4  5 10  1 10
      -0.000007453862  1  4  5 10  2  9
       0.000000000000  1  4  5 10  2 10
       0.000000000000  1  4  5 10  3  9
      -0.000001081494  1  4  5 10  3 10
      -0.000003365937  1  4  5 10  4  9
       0.000000000000  1  4  5 10  4 10
       0.000000000000  1  4  5 10  5  9
      -0.000007254300  1  4  5 10  5 10
       0.000006480480  1  4  5 10  6  9
       0.000000000000  1  4  5 10  6 10
       0.000000000000  1  4  6  9  1  9
       0.000049735451  1  4  6  9  1 10
      -0.000045579701  1  4  6  9  2  9
       0.000000000000  1  4  6  9  2 10
       0.000000000000  1  4  6  9  3  9
       0.000007371842  1  4  6  9  3 10
      -0.000001694416  1  4  6  9  4  9
       0.000000000000  1  4  6  9  4 10
       0.000000000000  1  4  6  9  5  9
       0.000006184160  1  4  6  9  5 10
      -0.000011422812  1  4  6  9  6  9
       0.000000000000  1  4  6  9  6 10
       0.000030516930  1  4  6 10  1  9
       0.000000000000  1  4  6 10  1 10
       0.000000000000  1  4  6 10  2  9
      -0.000028272906  1  4  6 10  2 10
       0.000004497451  1  4  6 10  3  9
       0.000000000000  1  4  6 10  3 10
       0.000000000000  1  4  6 10  4  9
       0.000000000000  1  4  6 10  4 10
       0.000005412590  1  4  6 10  5  9
       0.000000000000  1  4  6 10  5 10
       0.000000000000  1  4  6 10  6  9
      -0.000010598700  1  4  6 10  6 10
       0.000038746631  1  5  6  9  1  9
       0.000000000000  1  5  6  9  1 10
       0.000000000000  1  5  6  9  2  9
      -0.000046319116  1  5  6  9  2 10
       0.000000920666  1  5  6  9  3  9
       0.000000000000  1  5  6  9  3 10
       0.000000000000  1  5  6  9  4  9
      -0.000000125611  1  5  6  9  4 10
       0.000000891435  1  5  6  9  5  9
       0.000000000000  1  5  6  9  5 10
       0.000000000000  1  5  6  9  6  9
      -0.000001747483  1  5  6  9  6 10
       0.000000000000  1  5  6 10  1  9
       0.000063577884  1  5  6 10  1 10
      -0.000052811167  1  5  6 10  2  9
       0.000000000000  1  5  6 10  2 10
       0.000000000000  1  5  6 10  3  9
       0.000000669169  1  5  6 10  3 10
       0.000000297228  1  5  6 10  4  9
       0.000000000000  1  5  6 10  4 10
       0.000000000000  1  5  6 10  5  9
       0.000001223164  1  5  6 10  5 10
      -0.000001599337  1  5  6 10  6  9
       0.000000000000  1  5  6 10  6 10
       0.000044694100  1  7  8  9  1  9
       0.000000000000  1  7  8  9  1 10
       0.000000000000  1  7  8  9  2  9
      -0.000054129709  1  7  8  9  2 10
       0.000000147111  1  7  8  9  3  9
       0.000000000000  1  7  8  9  3 10
       0.000000000000  1  7  8  9  4  9
       0.000000000000  1  7  8  9  4 10
       0.000000154902  1  7  8  9  5  9
       0.000000000000  1  7  8  9  5 10
       0.000000000000  1  7  8  9  6  9
      -0.000000370263  1  7  8  9  6 10
       0.000000000000  1  7  8 10  1  9
       0.000070451280  1  7  8 10  1 10
      -0.000058576220  1  7  8 10  2  9
       0.000000000000  1  7  8 10  2 10
       0.000000000000  1  7  8 10  3  9
       0.000000000000  1  7  8 10  3 10
       0.000000185742  1  7  8 10  4  9
       0.000000000000  1  7  8 10  4 10
       0.000000000000  1  7  8 10  5  9
       0.000000295845  1  7  8 10  5 10
      -0.000000194795  1  7  8 10  6  9
       0.000000000000  1  7  8 10  6 10
       0.000000000000  2  3  4  9  1  9
       0.001053527677  2  3  4  9  1 10
      -0.000885499910  2  3  4  9  2  9
       0.000000000000  2  3  4  9  2 10
       0.000000000000  2  3  4  9  3  9
       0.000006205605  2  3  4  9  3 10
      -0.000000339891  2  3  4  9  4  9
       0.000000000000  2  3  4  9  4 10
       0.000000000000  2  3  4  9  5  9
       0.000006819580  2  3  4  9  5 10
      -0.000010024210  2  3  4  9  6  9
[...]
       0.000000000000  2  7  8  9  3  9
       0.000000000000  2  7  8  9  3 10
      -0.000000206907  2  7  8  9  4  9
       0.000000000000  2  7  8  9  4 10
       0.000000000000  2  7  8  9  5  9
      -0.000000273894  2  7  8  9  5 10
       0.000000151722  2  7  8  9  6  9
       0.000000000000  2  7  8  9  6 10
      -0.000056529339  2  7  8 10  1  9
       0.000000000000  2  7  8 10  1 10
       0.000000000000  2  7  8 10  2  9
       0.000067686238  2  7  8 10  2 10
      -0.000000167572  2  7  8 10  3  9
       0.000000000000  2  7  8 10  3 10
       0.000000000000  2  7  8 10  4  9
       0.000000000000  2  7  8 10  4 10
      -0.000000265760  2  7  8 10  5  9
       0.000000000000  2  7  8 10  5 10
       0.000000000000  2  7  8 10  6  9
       0.000000524984  2  7  8 10  6 10
      -0.000003585616  3  4  5  9  1  9
       0.000000000000  3  4  5  9  1 10
       0.000000000000  3  4  5  9  2  9
       0.000005322135  3  4  5  9  2 10
      -0.000000310043  3  4  5  9  3  9
       0.000000000000  3  4  5  9  3 10
       0.000000000000  3  4  5  9  4  9
       0.000001690637  3  4  5  9  4 10
       0.000001864485  3  4  5  9  5  9
       0.000000000000  3  4  5  9  5 10
       0.000000000000  3  4  5  9  6  9
      -0.000002005404  3  4  5  9  6 10
       0.000000000000  3  4  5 10  1  9
      -0.000005712657  3  4  5 10  1 10
       0.000005023231  3  4  5 10  2  9
       0.000000000000  3  4  5 10  2 10
       0.000000000000  3  4  5 10  3  9
      -0.000000498454  3  4  5 10  3 10
       0.000001672207  3  4  5 10  4  9
       0.000000000000  3  4  5 10  4 10
       0.000000000000  3  4  5 10  5  9
       0.000002608785  3  4  5 10  5 10
      -0.000001966912  3  4  5 10  6  9
       0.000000000000  3  4  5 10  6 10
       0.000000000000  3  4  6  9  1  9
       0.000003347402  3  4  6  9  1 10
      -0.000003492934  3  4  6  9  2  9
       0.000000000000  3  4  6  9  2 10
       0.000000000000  3  4  6  9  3  9
      -0.000004520026  3  4  6  9  3 10
       0.000001844334  3  4  6  9  4  9
       0.000000000000  3  4  6  9  4 10
       0.000000000000  3  4  6  9  5  9
      -0.000002088841  3  4  6  9  5 10
       0.000005098031  3  4  6  9  6  9
       0.000000000000  3  4  6  9  6 10
       0.000005582624  3  4  6 10  1  9
       0.000000000000  3  4  6 10  1 10
       0.000000000000  3  4  6 10  2  9
      -0.000009136205  3  4  6 10  2 10
      -0.000004376417  3  4  6 10  3  9
       0.000000000000  3  4  6 10  3 10
       0.000000000000  3  4  6 10  4  9
       0.000002508913  3  4  6 10  4 10
      -0.000002050673  3  4  6 10  5  9
       0.000000000000  3  4  6 10  5 10
       0.000000000000  3  4  6 10  6  9
       0.000007076168  3  4  6 10  6 10
       0.000002627961  3  5  6  9  1  9
       0.000000000000  3  5  6  9  1 10
       0.000000000000  3  5  6  9  2  9
      -0.000003336598  3  5  6  9  2 10
      -0.000000331598  3  5  6  9  3  9
       0.000000000000  3  5  6  9  3 10
       0.000000000000  3  5  6  9  4  9
       0.000000155094  3  5  6  9  4 10
      -0.000000206033  3  5  6  9  5  9
       0.000000000000  3  5  6  9  5 10
       0.000000000000  3  5  6  9  6  9
       0.000000563014  3  5  6  9  6 10
       0.000000000000  3  5  6 10  1  9
       0.000003475669  3  5  6 10  1 10
      -0.000003060576  3  5  6 10  2  9
       0.000000000000  3  5  6 10  2 10
       0.000000000000  3  5  6 10  3  9
      -0.000000437297  3  5  6 10  3 10
       0.000000142190  3  5  6 10  4  9
       0.000000000000  3  5  6 10  4 10
       0.000000000000  3  5  6 10  5  9
      -0.000000275936  3  5  6 10  5 10
       0.000000566323  3  5  6 10  6  9
       0.000000000000  3  5  6 10  6 10
       0.000000215022  3  7  8  9  1  9
       0.000000000000  3  7  8  9  1 10
       0.000000000000  3  7  8  9  2  9
      -0.000000348588  3  7  8  9  2 10
      -0.000000282097  3  7  8  9  3  9
       0.000000000000  3  7  8  9  3 10
       0.000000000000  3  7  8  9  4  9
       0.000000285022  3  7  8  9  4 10
       0.000000000000  3  7  8  9  5  9
       0.000000000000  3  7  8  9  5 10
       0.000000000000  3  7  8  9  6  9
       0.000000257356  3  7  8  9  6 10
       0.000000000000  3  7  8 10  1  9
       0.000000084950  3  7  8 10  1 10
      -0.000000119544  3  7  8 10  2  9
       0.000000000000  3  7  8 10  2 10
       0.000000000000  3  7  8 10  3  9
      -0.000000412829  3  7  8 10  3 10
       0.000000280754  3  7  8 10  4  9
       0.000000000000  3  7  8 10  4 10
       0.000000000000  3  7  8 10  5  9
       0.000000000000  3  7  8 10  5 10
       0.000000253395  3  7  8 10  6  9
       0.000000000000  3  7  8 10  6 10
       0.000000000000  4  5  6  9  1  9
       0.000001281958  4  5  6  9  1 10
      -0.000001073218  4  5  6  9  2  9
       0.000000000000  4  5  6  9  2 10
       0.000000000000  4  5  6  9  3  9
       0.000000188254  4  5  6  9  3 10
      -0.000000144724  4  5  6  9  4  9
       0.000000000000  4  5  6  9  4 10
       0.000000000000  4  5  6  9  5  9
      -0.000000084068  4  5  6  9  5 10
      -0.000000078474  4  5  6  9  6  9
       0.000000000000  4  5  6  9  6 10
       0.000001071559  4  5  6 10  1  9
       0.000000000000  4  5  6 10  1 10
       0.000000000000  4  5  6 10  2  9
      -0.000001250572  4  5  6 10  2 10
       0.000000224248  4  5  6 10  3  9
       0.000000000000  4  5  6 10  3 10
       0.000000000000  4  5  6 10  4  9
      -0.000000322380  4  5  6 10  4 10
      -0.000000113876  4  5  6 10  5  9
       0.000000000000  4  5  6 10  5 10
       0.000000000000  4  5  6 10  6  9
      -0.000000134616  4  5  6 10  6 10
       0.000000000000  4  7  8  9  1  9
       0.000001042243  4  7  8  9  1 10
      -0.000000828593  4  7  8  9  2  9
       0.000000000000  4  7  8  9  2 10
       0.000000000000  4  7  8  9  3  9
       0.000000240477  4  7  8  9  3 10
      -0.000000209394  4  7  8  9  4  9
       0.000000000000  4  7  8  9  4 10
       0.000000000000  4  7  8  9  5  9
      -0.000000080870  4  7  8  9  5 10
      -0.000000091562  4  7  8  9  6  9
       0.000000000000  4  7  8  9  6 10
       0.000000806483  4  7  8 10  1  9
       0.000000000000  4  7  8 10  1 10
       0.000000000000  4  7  8 10  2  9
      -0.000000936616  4  7  8 10  2 10
       0.000000256597  4  7  8 10  3  9
       0.000000000000  4  7  8 10  3 10
       0.000000000000  4  7  8 10  4  9
      -0.000000299814  4  7  8 10  4 10
      -0.000000081825  4  7  8 10  5  9
       0.000000000000  4  7  8 10  5 10
       0.000000000000  4  7  8 10  6  9
      -0.000000147476  4  7  8 10  6 10
       0.000000133968  5  7  8  9  1  9
       0.000000000000  5  7  8  9  1 10
       0.000000000000  5  7  8  9  2  9
      -0.000000226213  5  7  8  9  2 10
       0.000000000000  5  7  8  9  3  9
       0.000000000000  5  7  8  9  3 10
       0.000000000000  5  7  8  9  4  9
      -0.000000089921  5  7  8  9  4 10
      -0.000000083413  5  7  8  9  5  9
       0.000000000000  5  7  8  9  5 10
       0.000000000000  5  7  8  9  6  9
       0.000000095241  5  7  8  9  6 10
       0.000000000000  5  7  8 10  1  9
       0.000000264656  5  7  8 10  1 10
      -0.000000231524  5  7  8 10  2  9
       0.000000000000  5  7  8 10  2 10
       0.000000000000  5  7  8 10  3  9
       0.000000000000  5  7  8 10  3 10
      -0.000000090330  5  7  8 10  4  9
       0.000000000000  5  7  8 10  4 10
       0.000000000000  5  7  8 10  5  9
      -0.000000120941  5  7  8 10  5 10
       0.000000096911  5  7  8 10  6  9
       0.000000000000  5  7  8 10  6 10
       0.000000000000  6  7  8  9  1  9
      -0.000000323388  6  7  8  9  1 10
       0.000000321252  6  7  8  9  2  9
       0.000000000000  6  7  8  9  2 10
       0.000000000000  6  7  8  9  3  9
       0.000000263233  6  7  8  9  3 10
      -0.000000122825  6  7  8  9  4  9
       0.000000000000  6  7  8  9  4 10
       0.000000000000  6  7  8  9  5  9
       0.000000098150  6  7  8  9  5 10
      -0.000000275377  6  7  8  9  6  9
       0.000000000000  6  7  8  9  6 10
      -0.000000500968  6  7  8 10  1  9
       0.000000000000  6  7  8 10  1 10
       0.000000000000  6  7  8 10  2  9
       0.000000767454  6  7  8 10  2 10
       0.000000265172  6  7  8 10  3  9
       0.000000000000  6  7  8 10  3 10
       0.000000000000  6  7  8 10  4  9
      -0.000000188802  6  7  8 10  4 10
       0.000000097192  6  7  8 10  5  9
       0.000000000000  6  7  8 10  5 10
       0.000000000000  6  7  8 10  6  9
      -0.000000409841  6  7  8 10  6 10
       0.000016652749  1  2  7  9  7  9
       0.000000000000  1  2  7  9  7 10
       0.000000000000  1  2  7  9  8  9
      -0.000020973483  1  2  7  9  8 10
       0.000000000000  1  2  7 10  7  9
       0.000019068734  1  2  7 10  7 10
      -0.000018699340  1  2  7 10  8  9
       0.000000000000  1  2  7 10  8 10
       0.000000000000  1  2  8  9  7  9
      -0.000018699340  1  2  8  9  7 10
       0.000019068734  1  2  8  9  8  9
       0.000000000000  1  2  8  9  8 10
      -0.000016164332  1  2  8 10  7  9
       0.000000000000  1  2  8 10  7 10
       0.000000000000  1  2  8 10  8  9
       0.000020537908  1  2  8 10  8 10
       0.000000000000  1  3  7  9  7  9
      -0.000000109510  1  3  7  9  7 10
      -0.000000109510  1  3  7  9  8  9
       0.000000000000  1  3  7  9  8 10
      -0.000000178593  1  3  7 10  7  9
       0.000000000000  1  3  7 10  7 10
       0.000000000000  1  3  7 10  8  9
       0.000000239218  1  3  7 10  8 10
      -0.000000178593  1  3  8  9  7  9
       0.000000000000  1  3  8  9  7 10
       0.000000000000  1  3  8  9  8  9
       0.000000239218  1  3  8  9  8 10
       0.000000000000  1  3  8 10  7  9
       0.000000149633  1  3  8 10  7 10
       0.000000149633  1  3  8 10  8  9
       0.000000000000  1  3  8 10  8 10
      -0.000005366145  1  4  7  9  7  9
       0.000000000000  1  4  7  9  7 10
       0.000000000000  1  4  7  9  8  9
       0.000007080288  1  4  7  9  8 10
       0.000000000000  1  4  7 10  7  9
      -0.000006408791  1  4  7 10  7 10
       0.000006247203  1  4  7 10  8  9
       0.000000000000  1  4  7 10  8 10
       0.000000000000  1  4  8  9  7  9
       0.000006247203  1  4  8  9  7 10
      -0.000006408791  1  4  8  9  8  9
       0.000000000000  1  4  8  9  8 10
       0.000005348993  1  4  8 10  7  9
       0.000000000000  1  4  8 10  7 10
       0.000000000000  1  4  8 10  8  9
      -0.000007128243  1  4  8 10  8 10
       0.000000000000  1  5  7  9  7  9
       0.000000000000  1  5  7  9  7 10
       0.000000000000  1  5  7  9  8  9
       0.000000000000  1  5  7  9  8 10
       0.000000000000  1  5  7 10  7  9
       0.000000000000  1  5  7 10  7 10
       0.000000000000  1  5  7 10  8  9
       0.000000000000  1  5  7 10  8 10
       0.000000000000  1  5  8  9  7  9
       0.000000000000  1  5  8  9  7 10
       0.000000000000  1  5  8  9  8  9
       0.000000000000  1  5  8  9  8 10
       0.000000000000  1  5  8 10  7  9
       0.000000000000  1  5  8 10  7 10
       0.000000000000  1  5  8 10  8  9
       0.000000000000  1  5  8 10  8 10
      -0.000000567995  1  6  7  9  7  9
       0.000000000000  1  6  7  9  7 10
       0.000000000000  1  6  7  9  8  9
       0.000000710808  1  6  7  9  8 10
       0.000000000000  1  6  7 10  7  9
      -0.000000822065  1  6  7 10  7 10
       0.000000833454  1  6  7 10  8  9
       0.000000000000  1  6  7 10  8 10
       0.000000000000  1  6  8  9  7  9
       0.000000833454  1  6  8  9  7 10
      -0.000000822065  1  6  8  9  8  9
       0.000000000000  1  6  8  9  8 10
       0.000000927691  1  6  8 10  7  9
       0.000000000000  1  6  8 10  7 10
       0.000000000000  1  6  8 10  8  9
      -0.000001203437  1  6  8 10  8 10
       0.000004600343  2  3  7  9  7  9
       0.000000000000  2  3  7  9  7 10
       0.000000000000  2  3  7  9  8  9
      -0.000006289404  2  3  7  9  8 10
       0.000000000000  2  3  7 10  7  9
       0.000006111646  2  3  7 10  7 10
      -0.000006104318  2  3  7 10  8  9
       0.000000000000  2  3  7 10  8 10
       0.000000000000  2  3  8  9  7  9
      -0.000006104318  2  3  8  9  7 10
       0.000006111646  2  3  8  9  8  9
       0.000000000000  2  3  8  9  8 10
      -0.000005934351  2  3  8 10  7  9
       0.000000000000  2  3  8 10  7 10
       0.000000000000  2  3  8 10  8  9
       0.000008056111  2  3  8 10  8 10
       0.000000000000  2  4  7  9  7  9
       0.000000287256  2  4  7  9  7 10
       0.000000287256  2  4  7  9  8  9
       0.000000000000  2  4  7  9  8 10
       0.000000905413  2  4  7 10  7  9
       0.000000000000  2  4  7 10  7 10
       0.000000000000  2  4  7 10  8  9
      -0.000001098178  2  4  7 10  8 10
       0.000000905413  2  4  8  9  7  9
       0.000000000000  2  4  8  9  7 10
       0.000000000000  2  4  8  9  8  9
      -0.000001098178  2  4  8  9  8 10
       0.000000000000  2  4  8 10  7  9
      -0.000000185914  2  4  8 10  7 10
      -0.000000185914  2  4  8 10  8  9
       0.000000000000  2  4  8 10  8 10
      -0.000000321571  2  5  7  9  7  9
       0.000000000000  2  5  7  9  7 10
       0.000000000000  2  5  7  9  8  9
       0.000000402765  2  5  7  9  8 10
       0.000000000000  2  5  7 10  7  9
      -0.000000371558  2  5  7 10  7 10
       0.000000370648  2  5  7 10  8  9
       0.000000000000  2  5  7 10  8 10
       0.000000000000  2  5  8  9  7  9
       0.000000370648  2  5  8  9  7 10
      -0.000000371558  2  5  8  9  8  9
       0.000000000000  2  5  8  9  8 10
       0.000000330419  2  5  8 10  7  9
       0.000000000000  2  5  8 10  7 10
       0.000000000000  2  5  8 10  8  9
      -0.000000364830  2  5  8 10  8 10
       0.000000000000  2  6  7  9  7  9
       0.000000000000  2  6  7  9  7 10
       0.000000000000  2  6  7  9  8  9
       0.000000000000  2  6  7  9  8 10
      -0.000000174741  2  6  7 10  7  9
       0.000000000000  2  6  7 10  7 10
       0.000000000000  2  6  7 10  8  9
       0.000000245637  2  6  7 10  8 10
      -0.000000174741  2  6  8  9  7  9
       0.000000000000  2  6  8  9  7 10
       0.000000000000  2  6  8  9  8  9
       0.000000245637  2  6  8  9  8 10
       0.000000000000  2  6  8 10  7  9
       0.000000000000  2  6  8 10  7 10
       0.000000000000  2  6  8 10  8  9
       0.000000000000  2  6  8 10  8 10
       0.000001479990  3  4  7  9  7  9
       0.000000000000  3  4  7  9  7 10
       0.000000000000  3  4  7  9  8  9
      -0.000002115520  3  4  7  9  8 10
       0.000000000000  3  4  7 10  7  9
       0.000002072276  3  4  7 10  7 10
      -0.000002073254  3  4  7 10  8  9
       0.000000000000  3  4  7 10  8 10
       0.000000000000  3  4  8  9  7  9
      -0.000002073254  3  4  8  9  7 10
       0.000002072276  3  4  8  9  8  9
       0.000000000000  3  4  8  9  8 10
      -0.000001977488  3  4  8 10  7  9
       0.000000000000  3  4  8 10  7 10
       0.000000000000  3  4  8 10  8  9
       0.000002892046  3  4  8 10  8 10
       0.000000000000  3  5  7  9  7  9
       0.000000000000  3  5  7  9  7 10
       0.000000000000  3  5  7  9  8  9
       0.000000000000  3  5  7  9  8 10
       0.000000000000  3  5  7 10  7  9
       0.000000000000  3  5  7 10  7 10
       0.000000000000  3  5  7 10  8  9
       0.000000000000  3  5  7 10  8 10
       0.000000000000  3  5  8  9  7  9
       0.000000000000  3  5  8  9  7 10
       0.000000000000  3  5  8  9  8  9
       0.000000000000  3  5  8  9  8 10
       0.000000000000  3  5  8 10  7  9
       0.000000000000  3  5  8 10  7 10
       0.000000000000  3  5  8 10  8  9
       0.000000000000  3  5  8 10  8 10
       0.000000192161  3  6  7  9  7  9
       0.000000000000  3  6  7  9  7 10
       0.000000000000  3  6  7  9  8  9
      -0.000000249076  3  6  7  9  8 10
       0.000000000000  3  6  7 10  7  9
       0.000000256924  3  6  7 10  7 10
      -0.000000256355  3  6  7 10  8  9
       0.000000000000  3  6  7 10  8 10
       0.000000000000  3  6  8  9  7  9
      -0.000000256355  3  6  8  9  7 10
       0.000000256924  3  6  8  9  8  9
       0.000000000000  3  6  8  9  8 10
      -0.000000275161  3  6  8 10  7  9
       0.000000000000  3  6  8 10  7 10
       0.000000000000  3  6  8 10  8  9
       0.000000376252  3  6  8 10  8 10
       0.000000000000  4  5  7  9  7  9
       0.000000000000  4  5  7  9  7 10
       0.000000000000  4  5  7  9  8  9
       0.000000000000  4  5  7  9  8 10
       0.000000000000  4  5  7 10  7  9
       0.000000000000  4  5  7 10  7 10
       0.000000000000  4  5  7 10  8  9
       0.000000000000  4  5  7 10  8 10
       0.000000000000  4  5  8  9  7  9
       0.000000000000  4  5  8  9  7 10
       0.000000000000  4  5  8  9  8  9
       0.000000000000  4  5  8  9  8 10
       0.000000000000  4  5  8 10  7  9
       0.000000000000  4  5  8 10  7 10
       0.000000000000  4  5  8 10  8  9
       0.000000000000  4  5  8 10  8 10
       0.000000000000  4  6  7  9  7  9
       0.000000000000  4  6  7  9  7 10
       0.000000000000  4  6  7  9  8  9
       0.000000000000  4  6  7  9  8 10
       0.000000000000  4  6  7 10  7  9
       0.000000000000  4  6  7 10  7 10
       0.000000000000  4  6  7 10  8  9
       0.000000000000  4  6  7 10  8 10
       0.000000000000  4  6  8  9  7  9
       0.000000000000  4  6  8  9  7 10
       0.000000000000  4  6  8  9  8  9
       0.000000000000  4  6  8  9  8 10
       0.000000000000  4  6  8 10  7  9
       0.000000000000  4  6  8 10  7 10
       0.000000000000  4  6  8 10  8  9
       0.000000000000  4  6  8 10  8 10
      -0.000000078123  5  6  7  9  7  9
       0.000000000000  5  6  7  9  7 10
       0.000000000000  5  6  7  9  8  9
       0.000000111381  5  6  7  9  8 10
       0.000000000000  5  6  7 10  7  9
      -0.000000109997  5  6  7 10  7 10
       0.000000111261  5  6  7 10  8  9
       0.000000000000  5  6  7 10  8 10
       0.000000000000  5  6  8  9  7  9
       0.000000111261  5  6  8  9  7 10
      -0.000000109997  5  6  8  9  8  9
       0.000000000000  5  6  8  9  8 10
       0.000000110460  5  6  8 10  7  9
       0.000000000000  5  6  8 10  7 10
       0.000000000000  5  6  8 10  8  9
      -0.000000157225  5  6  8 10  8 10
 /EOF
 !FCI STATE  1.1 Dipole moment          0.00000000     0.00000000     0.00000000
 Dipole moment /Debye                   0.00000000     0.00000000     0.00000000


 **********************************************************************************************************************************
 DATASETS  * FILE   NREC   LENGTH (MB)   RECORD NAMES
              1      19       29.94       500      700      610      900      950      970     1000      129      960     1100   
                                          VAR     GEOM    BASINP   SYMINP    ZMAT    AOBASIS   BASIS     P2S    ABASIS      S 
                                         1400     1410     1200     1210     1080     1600     1650     1300     1700   
                                           T        V       H0       H01     AOSYM     SMH    MOLCAS    ERIS     OPER   

              3       5       14.77       500      610      700     1000     2100   
                                          VAR    BASINP    GEOM     BASIS     RHF  

 PROGRAMS   *        TOTAL       FCI       INT   RESTART
 CPU TIMES  *         0.30      0.04      0.14      0.02
 REAL TIME  *         0.48 SEC
 DISK USED  *        49.42 MB
 **********************************************************************************************************************************
 Molecular orbitals read from record     2100.3  Type=RHF/CANONICAL (state 1.1)
 Occupation numbers read from record     2100.3  Type=RHF/RHF (state 1.1)
 Orbital energies read from record       2100.3  Type=RHF/CANONICAL (state 1.1)
 Redundancy group numbers read from rec  2100.3  Type=RHF/RHF (state 1.1)

 FCI/STO-3G energy=    -14.621266571109

             FCI
    -14.62126657
 **********************************************************************************************************************************
 Molpro calculation terminated
