
 Primary working directories    : /scr/yuriaoto/job.023108/molpro.fjJedZuI6A
 Secondary working directories  : /scr/yuriaoto/job.023108/molpro.fjJedZuI6A
 Wavefunction directory         : /scr/yuriaoto/job.023108/
 Main file repository           : /scr/yuriaoto/job.023108/molpro.fjJedZuI6A/

 id        : yuriaoto

 Nodes             nprocs
 t-rex.ufabc.int.br    1

 Using customized tuning parameters: mindgm=8; mindgv=16; mindgc=1; mindgr=1; noblas=0; minvec=7
 default implementation of scratch files=df  


 Variables initialized (933), CPU time= 0.00 sec
 ***,
 memory,40,m
 gprint,orbital,basis,civector
 gthresh,thrprint=0,printci=0.0
 file,3,wfu.dat,old
 
 {fci
 wf,5,1,1;
 core,0
 }
 Commands  initialized (760), CPU time= 0.01 sec, 617 directives.
 Default parameters read. Elapsed time= 0.03 sec

 Checking input...
 Passed
1


                                         ***  PROGRAM SYSTEM MOLPRO  ***
                                       Copyright, TTI GmbH Stuttgart, 2015
                                    Version 2019.2 linked Abr  7 2019 15:10:35


 **********************************************************************************************************************************
 LABEL *                                                                                 
  64 bit serial version                                                                  DATE: 20-Apr-20          TIME: 14:09:09  
 **********************************************************************************************************************************

 SHA1:             3a8a58c585c929645742fb5a1b7541a4ad1da699
 **********************************************************************************************************************************


 THRESHOLDS:

 ZERO    =  1.00D-12  ONEINT  =  1.00D-12  TWOINT  =  1.00D-11  PREFAC  =  1.00D-14  XXXXXX  =  1.00D-09  EORDER  =  1.00D-04
 ENERGY  =  0.00D+00  ETEST   =  0.00D+00  EDENS   =  0.00D+00  THRDEDEF=  1.00D-06  GRADIENT=  1.00D-02  STEP    =  1.00D-03
 ORBITAL =  1.00D-05  CIVEC   =  1.00D-05  COEFF   =  1.00D-04  PRINTCI =  0.00D+00  PUNCHCI =  9.90D+01  OPTGRAD =  3.00D-04
 OPTENERG=  1.00D-06  OPTSTEP =  3.00D-04  THRGRAD =  1.00D-10  COMPRESS=  1.00D-11  VARMIN  =  1.00D-07  VARMAX  =  1.00D-03
 THRDOUB =  0.00D+00  THRDIV  =  1.00D-05  THRRED  =  1.00D-07  THRPSP  =  1.00D+00  THRDC   =  1.00D-10  THRCS   =  1.00D-10
 THRNRM  =  1.00D-08  THREQ   =  0.00D+00  THRDE   =  1.00D+00  THRREF  =  1.00D-05  SPARFAC =  1.00D+00  THRDLP  =  1.00D-07
 THRDIA  =  1.00D-10  THRDLS  =  1.00D-07  THRGPS  =  0.00D+00  THRKEX  =  0.00D+00  THRDIS  =  2.00D-01  THRVAR  =  1.00D-10
 THRLOC  =  1.00D-06  THRGAP  =  1.00D-06  THRLOCT = -1.00D+00  THRGAPT = -1.00D+00  THRORB  =  1.00D-06  THRMLTP =  0.00D+00
 THRCPQCI=  1.00D-10  KEXTA   =  0.00D+00  THRCOARS=  0.00D+00  SYMTOL  =  1.00D-06  GRADTOL =  1.00D-06  THROVL  =  1.00D-08
 THRORTH =  1.00D-08  GRID    =  1.00D-06  GRIDMAX =  1.00D-03  DTMAX   =  0.00D+00  THROCCDE=  1.00D-01  THROCCDE=  1.00D-01
 THRPRINT=  0.00D+00


 Variable memory set to   40000000 words,  buffer space 



 Permanent file  3  wfu.dat  assigned.  Implementation=df    Size= 14.08 MB


 PROGRAM * RESTART 


 Reading variables from file 3

 _FNUC           =      0.00000000
 _BASIS          =    STO-3G
 _NELEC          =      6.00000000
 _PROGRAM        =    RHF-SCF
 _DMZ            =     -0.00000000
 _DMX_SCF        =      0.00000000
 _DMY_SCF        =      0.00000000
 _DMZ_SCF        =     -0.00000000
 _HOMO           =      3.10000000
 _EHOMO          =     -0.15007102
 _LUMO           =      4.10000000
 _ELUMO          =      0.08336193
 _ENERGY         =    -14.63864283
 _ENERGY_METHOD  =    RHF
 _ENERGY_BASIS   =    STO-3G
 _ENUC           =      1.80000000
 _EPS1(1:6)      =     -2.32975138    -2.32973347    -0.15007102     0.08336193     0.15828123     0.47434817
 _EPS2(1:2)      =      0.13305715     0.24181392
 _EPS3(1:2)      =      0.13305715     0.24181392
 _IPROC_MPP      =      0.00000000
 _IPROC_MPPX     =      0.00000000
 _ORBITAL        =   2100.30000000
 _STATUS         =      1.00000000
 _DATE           =    21-Oct-19
 _LASTORB        =    RHF
 _OUTPUT         =    /scr/yuriaoto/job.022398/RHF.xml
 _PGROUP         =    C2v 
 _TIME           =    10:12:38
 R               =      5.00000000

 Geometry written to block  1 of record 700


 **********************************************************************************************************************************
 DATASETS  * FILE   NREC   LENGTH (MB)   RECORD NAMES
              3       5       14.77       500      610      700     1000     2100   
                                          VAR    BASINP    GEOM     BASIS     RHF  

 PROGRAMS   *        TOTAL   RESTART
 CPU TIMES  *         0.10      0.02
 REAL TIME  *         0.12 SEC
 DISK USED  *        26.84 MB
 **********************************************************************************************************************************


 Recomputing integrals since basis changed


 Using spherical harmonics

 Library entry LI     S STO-3G               selected for orbital group  1
 Library entry LI     P STO-3G               selected for orbital group  1


 PROGRAM * SEWARD (Integral evaluation for generally contracted gaussian basis sets)     Author: Roland Lindh, 1990

 Geometry written to block  1 of record 700

 Orientation using atomic masses  
 Molecule type: Linear
 User-specified symmetry elements: X,Y
 Symmetry elements: X,Y
 Rotational constants:      20.8009354     20.8009354      0.0000000 GHz  (calculated with average atomic masses)

 Point group  C2v 



 ATOMIC COORDINATES

 NR  ATOM    CHARGE       X              Y              Z

   1  LI1     3.00    0.000000000    0.000000000   -2.500000000
   2  LI2     3.00    0.000000000    0.000000000    2.500000000

 Bond lengths in Bohr (Angstrom)

 1-2  5.000000000
     ( 2.645886055)


 BASIS DATA

   Nr Sym  Nuc  Type         Exponents   Contraction coefficients

    1.1 A1    1  1s          16.119575     0.154329
                              2.936201     0.535328
                              0.794651     0.444635
    2.1 A1    1  1s           0.636290    -0.099967
                              0.147860     0.399513
                              0.048089     0.700115
    3.1 A1    1  2pz          0.636290     0.155916
                              0.147860     0.607684
                              0.048089     0.391957
    4.1 A1    2  1s          16.119575     0.154329
                              2.936201     0.535328
                              0.794651     0.444635
    5.1 A1    2  1s           0.636290    -0.099967
                              0.147860     0.399513
                              0.048089     0.700115
    6.1 A1    2  2pz          0.636290     0.155916
                              0.147860     0.607684
                              0.048089     0.391957
    1.2 B1    1  2px          0.636290     0.155916
                              0.147860     0.607684
                              0.048089     0.391957
    2.2 B1    2  2px          0.636290     0.155916
                              0.147860     0.607684
                              0.048089     0.391957
    1.3 B2    1  2py          0.636290     0.155916
                              0.147860     0.607684
                              0.048089     0.391957
    2.3 B2    2  2py          0.636290     0.155916
                              0.147860     0.607684
                              0.048089     0.391957

 NUCLEAR CHARGE:                    6
 NUMBER OF PRIMITIVE AOS:          30
 NUMBER OF SYMMETRY AOS:           30
 NUMBER OF CONTRACTIONS:           10   (    6A1  +    2B1  +    2B2  +    0A2  )
 NUMBER OF CORE ORBITALS:           2   (    2A1  +    0B1  +    0B2  +    0A2  )
 NUMBER OF VALENCE ORBITALS:        8   (    4A1  +    2B1  +    2B2  +    0A2  )


 NUCLEAR REPULSION ENERGY    1.80000000

 Eigenvalues of metric

         1 0.155E+00 0.805E+00 0.846E+00 0.104E+01 0.123E+01 0.192E+01
         2 0.713E+00 0.129E+01
         3 0.713E+00 0.129E+01


 Contracted 2-electron integrals neglected if value below      1.0D-11
 AO integral compression algorithm  1   Integral accuracy      1.0D-11

     0.262 MB (compressed) written to integral file (100.0%)


 NUMBER OF SORTED TWO-ELECTRON INTEGRALS:        648.     BUFFER LENGTH:  32768
 NUMBER OF SEGMENTS:   1  SEGMENT LENGTH:        648      RECORD LENGTH: 524288

 Memory used in sort:       0.56 MW

 SORT1 READ         777. AND WROTE         608. INTEGRALS IN      1 RECORDS. CPU TIME:     0.00 SEC, REAL TIME:     0.00 SEC
 SORT2 READ         608. AND WROTE         648. INTEGRALS IN      1 RECORDS. CPU TIME:     0.01 SEC, REAL TIME:     0.01 SEC

 FILE SIZES:   FILE 1:    30.2 MBYTE,  FILE 4:     4.2 MBYTE,   TOTAL:     34.4 MBYTE

 OPERATOR DM      FOR CENTER  0  COORDINATES:    0.000000    0.000000    0.000000


 **********************************************************************************************************************************
 DATASETS  * FILE   NREC   LENGTH (MB)   RECORD NAMES
              1      19       29.94       500      700      610      900      950      970     1000      129      960     1100   
                                          VAR     GEOM    BASINP   SYMINP    ZMAT    AOBASIS   BASIS     P2S    ABASIS      S 
                                         1400     1410     1200     1210     1080     1600     1650     1300     1700   
                                           T        V       H0       H01     AOSYM     SMH    MOLCAS    ERIS     OPER   

              3       5       14.77       500      610      700     1000     2100   
                                          VAR    BASINP    GEOM     BASIS     RHF  

 PROGRAMS   *        TOTAL       INT   RESTART
 CPU TIMES  *         0.28      0.18      0.02
 REAL TIME  *         0.47 SEC
 DISK USED  *        49.42 MB
 **********************************************************************************************************************************


 PROGRAM * FCI (Full CI)     Author: P.J. Knowles, 1984


 Molecular orbitals read from record     2100.3  Type=RHF/CANONICAL (state 1.1)

 Frozen orbitals:              0 (  0  0  0  0  0  0  0  0)
 Active orbitals:             10 (  6  2  2  0  0  0  0  0)
 Active electrons:             5
 Spin quantum number:          0.5
 Orbital pairs:                    27      12      12       4       0       0       0       0
 Strings:                          32      32      32      24       0       0       0       0
                                   17      12      12       4       0       0       0       0
 Determinants:                           1408            1344            1344            1304
                                            0               0               0               0

 Load integrals                0.9 sec
 Transform integrals           0.9 sec
 Storage for integrals:           1243
 Remaining memory:            39997657

 Core energy:               1.80000000
 Run Hamiltonian processor DAVIDSON
 Symmetry:                   1
 Trial vector:                  0.00
 Result vector:                 0.00
 Maximum iterations:           90
 Convergence threshold:         0.0000100
 RHS vector:                    0.00
 Hamiltonian shift:             0.0000000
 Output threshold:              0.0000000
 Options:                        0
 Number of roots:             1

 Hamiltonian diagonaliser entered at time      0.88

 Initial configuration generated:
       1      1.0000000    -14.4885718

 It  Tr    CPU  Convergence   Energy       Pop     dE(next)

  1   1    0.9  1.00000000   -14.48857182
                                           0.02 -0.01544566 -0.01521429
  2   1    0.9  0.28444925   -14.50224370
                                           0.06 -0.00028535 -0.00028346
  3   1    0.9  0.00741391   -14.50249917
                                           0.09 -0.00000504 -0.00000492
  4   1    0.9  0.00111260   -14.50250375
                                           0.16 -0.00000021 -0.00000020
  5   1    0.9  0.00018802   -14.50250393
                                           0.20 -0.00000002 -0.00000002
  6   1    0.9  0.00004850   -14.50250395
                                           0.18 -0.00000000 -0.00000000
  7   1    0.9  0.00001274   -14.50250395
                                           0.16 -0.00000000 -0.00000000
  8   1    0.9  0.00000320   -14.50250395


RESULTS FOR STATE  1.1
=====================

 Correlation energy                    -0.013932133403
 !FCI STATE  1.1 Energy               -14.502503948737
 CI Vector (threshold=  0.00    )
       0.958072665499  1  2  3  1  2
       0.000000000000  1  2  3  1  3
      -0.000471103708  1  2  3  1  4
       0.000000000000  1  2  3  1  5
       0.002525548458  1  2  3  1  6
      -0.000434833542  1  2  3  2  3
       0.000000000000  1  2  3  2  4
      -0.001712502585  1  2  3  2  5
       0.000000000000  1  2  3  2  6
       0.000003191445  1  2  3  3  4
       0.000000000000  1  2  3  3  5
      -0.000013121108  1  2  3  3  6
      -0.000061544986  1  2  3  4  5
       0.000000000000  1  2  3  4  6
      -0.000110745088  1  2  3  5  6
      -0.000058671472  1  2  3  7  8
      -0.000058671472  1  2  3  9 10
       0.000000000000  1  2  4  1  2
       0.001621459362  1  2  4  1  3
       0.000000000000  1  2  4  1  4
       0.000294360694  1  2  4  1  5
       0.000000000000  1  2  4  1  6
       0.000000000000  1  2  4  2  3
      -0.001057610270  1  2  4  2  4
       0.000000000000  1  2  4  2  5
      -0.001313222460  1  2  4  2  6
       0.000000000000  1  2  4  3  4
      -0.000006934241  1  2  4  3  5
       0.000000000000  1  2  4  3  6
       0.000000000000  1  2  4  4  5
       0.000007547343  1  2  4  4  6
       0.000000000000  1  2  4  5  6
       0.000000000000  1  2  4  7  8
       0.000000000000  1  2  4  9 10
       0.286186067021  1  2  5  1  2
       0.000000000000  1  2  5  1  3
       0.000684889939  1  2  5  1  4
       0.000000000000  1  2  5  1  5
      -0.001836910189  1  2  5  1  6
       0.000801937954  1  2  5  2  3
       0.000000000000  1  2  5  2  4
       0.001825832688  1  2  5  2  5
       0.000000000000  1  2  5  2  6
       0.000002943910  1  2  5  3  4
       0.000000000000  1  2  5  3  5
      -0.000005281088  1  2  5  3  6
      -0.000030247631  1  2  5  4  5
       0.000000000000  1  2  5  4  6
      -0.000051496265  1  2  5  5  6
      -0.000017111534  1  2  5  7  8
      -0.000017111534  1  2  5  9 10
       0.000000000000  1  2  6  1  2
       0.001582822073  1  2  6  1  3
       0.000000000000  1  2  6  1  4
      -0.001708627911  1  2  6  1  5
       0.000000000000  1  2  6  1  6
       0.000000000000  1  2  6  2  3
      -0.002322742163  1  2  6  2  4
       0.000000000000  1  2  6  2  5
       0.000615100890  1  2  6  2  6
       0.000000000000  1  2  6  3  4
      -0.000002212034  1  2  6  3  5
       0.000000000000  1  2  6  3  6
       0.000000000000  1  2  6  4  5
       0.000005924327  1  2  6  4  6
       0.000000000000  1  2  6  5  6
       0.000000000000  1  2  6  7  8
       0.000000000000  1  2  6  9 10
       0.002092392056  1  3  4  1  2
       0.000000000000  1  3  4  1  3
       0.002282165069  1  3  4  1  4
       0.000000000000  1  3  4  1  5
       0.001076901192  1  3  4  1  6
      -0.002283825615  1  3  4  2  3
       0.000000000000  1  3  4  2  4
       0.000779270893  1  3  4  2  5
       0.000000000000  1  3  4  2  6
       0.000006415903  1  3  4  3  4
       0.000000000000  1  3  4  3  5
       0.000015967619  1  3  4  3  6
      -0.000009609575  1  3  4  4  5
       0.000000000000  1  3  4  4  6
      -0.000004582767  1  3  4  5  6
      -0.000003189949  1  3  4  7  8
      -0.000003189949  1  3  4  9 10
       0.000000000000  1  3  5  1  2
      -0.001051941453  1  3  5  1  3
       0.000000000000  1  3  5  1  4
       0.000959636192  1  3  5  1  5
       0.000000000000  1  3  5  1  6
       0.000000000000  1  3  5  2  3
       0.001438469156  1  3  5  2  4
       0.000000000000  1  3  5  2  5
      -0.000164088488  1  3  5  2  6
       0.000000000000  1  3  5  3  4
      -0.000001710533  1  3  5  3  5
       0.000000000000  1  3  5  3  6
       0.000000000000  1  3  5  4  5
       0.000000459707  1  3  5  4  6
       0.000000000000  1  3  5  5  6
       0.000000000000  1  3  5  7  8
       0.000000000000  1  3  5  9 10
      -0.000942734455  1  3  6  1  2
       0.000000000000  1  3  6  1  3
       0.001029386216  1  3  6  1  4
       0.000000000000  1  3  6  1  5
       0.002677673400  1  3  6  1  6
      -0.002041065440  1  3  6  2  3
       0.000000000000  1  3  6  2  4
      -0.000890661206  1  3  6  2  5
       0.000000000000  1  3  6  2  6
       0.000011901181  1  3  6  3  4
       0.000000000000  1  3  6  3  5
       0.000009001254  1  3  6  3  6
       0.000004117091  1  3  6  4  5
       0.000000000000  1  3  6  4  6
      -0.000000500981  1  3  6  5  6
      -0.000002454236  1  3  6  7  8
      -0.000002454236  1  3  6  9 10
       0.000390653957  1  4  5  1  2
       0.000000000000  1  4  5  1  3
      -0.000747683387  1  4  5  1  4
       0.000000000000  1  4  5  1  5
      -0.000288667231  1  4  5  1  6
       0.000710742617  1  4  5  2  3
       0.000000000000  1  4  5  2  4
      -0.000298197584  1  4  5  2  5
       0.000000000000  1  4  5  2  6
       0.000001882612  1  4  5  3  4
       0.000000000000  1  4  5  3  5
       0.000003447679  1  4  5  3  6
      -0.000002058687  1  4  5  4  5
       0.000000000000  1  4  5  4  6
       0.000001127685  1  4  5  5  6
       0.000000916266  1  4  5  7  8
       0.000000916266  1  4  5  9 10
       0.000000000000  1  4  6  1  2
      -0.000047635337  1  4  6  1  3
       0.000000000000  1  4  6  1  4
       0.000058414478  1  4  6  1  5
       0.000000000000  1  4  6  1  6
       0.000000000000  1  4  6  2  3
       0.000074698939  1  4  6  2  4
       0.000000000000  1  4  6  2  5
      -0.000021644838  1  4  6  2  6
       0.000000000000  1  4  6  3  4
       0.000002011396  1  4  6  3  5
       0.000000000000  1  4  6  3  6
       0.000000000000  1  4  6  4  5
      -0.000002842207  1  4  6  4  6
       0.000000000000  1  4  6  5  6
       0.000000000000  1  4  6  7  8
       0.000000000000  1  4  6  9 10
       0.000128276551  1  5  6  1  2
       0.000000000000  1  5  6  1  3
       0.000347135220  1  5  6  1  4
       0.000000000000  1  5  6  1  5
       0.000765644014  1  5  6  1  6
      -0.000618890359  1  5  6  2  3
       0.000000000000  1  5  6  2  4
      -0.000215345106  1  5  6  2  5
       0.000000000000  1  5  6  2  6
      -0.000000555172  1  5  6  3  4
       0.000000000000  1  5  6  3  5
      -0.000004952190  1  5  6  3  6
      -0.000001697343  1  5  6  4  5
       0.000000000000  1  5  6  4  6
      -0.000010291755  1  5  6  5  6
      -0.000000771680  1  5  6  7  8
      -0.000000771680  1  5  6  9 10
       0.001390626325  1  7  8  1  2
       0.000000000000  1  7  8  1  3
      -0.000034935322  1  7  8  1  4
       0.000000000000  1  7  8  1  5
      -0.000021882232  1  7  8  1  6
       0.000037467624  1  7  8  2  3
       0.000000000000  1  7  8  2  4
      -0.000005528958  1  7  8  2  5
       0.000000000000  1  7  8  2  6
       0.000000149580  1  7  8  3  4
       0.000000000000  1  7  8  3  5
      -0.000000141844  1  7  8  3  6
       0.000000000000  1  7  8  4  5
       0.000000000000  1  7  8  4  6
      -0.000000159194  1  7  8  5  6
      -0.000009743111  1  7  8  7  8
       0.000000000000  1  7  8  9 10
       0.001390626325  1  9 10  1  2
       0.000000000000  1  9 10  1  3
      -0.000034935322  1  9 10  1  4
       0.000000000000  1  9 10  1  5
      -0.000021882232  1  9 10  1  6
       0.000037467624  1  9 10  2  3
       0.000000000000  1  9 10  2  4
      -0.000005528958  1  9 10  2  5
       0.000000000000  1  9 10  2  6
       0.000000149580  1  9 10  3  4
       0.000000000000  1  9 10  3  5
      -0.000000141844  1  9 10  3  6
       0.000000000000  1  9 10  4  5
       0.000000000000  1  9 10  4  6
      -0.000000159194  1  9 10  5  6
       0.000000000000  1  9 10  7  8
      -0.000009743111  1  9 10  9 10
       0.000000000000  2  3  4  1  2
      -0.002286925644  2  3  4  1  3
       0.000000000000  2  3  4  1  4
       0.000724772663  2  3  4  1  5
       0.000000000000  2  3  4  1  6
       0.000000000000  2  3  4  2  3
       0.002252264089  2  3  4  2  4
       0.000000000000  2  3  4  2  5
       0.001133980570  2  3  4  2  6
       0.000000000000  2  3  4  3  4
       0.000007453894  2  3  4  3  5
       0.000000000000  2  3  4  3  6
       0.000000000000  2  3  4  4  5
      -0.000009062787  2  3  4  4  6
       0.000000000000  2  3  4  5  6
       0.000000000000  2  3  4  7  8
       0.000000000000  2  3  4  9 10
       0.002514269258  2  3  5  1  2
       0.000000000000  2  3  5  1  3
       0.001497079701  2  3  5  1  4
       0.000000000000  2  3  5  1  5
      -0.000269644011  2  3  5  1  6
      -0.001033107414  2  3  5  2  3
       0.000000000000  2  3  5  2  4
       0.001074244755  2  3  5  2  5
       0.000000000000  2  3  5  2  6
      -0.000000580430  2  3  5  3  4
       0.000000000000  2  3  5  3  5
      -0.000003410223  2  3  5  3  6
      -0.000002584168  2  3  5  4  5
       0.000000000000  2  3  5  4  6
      -0.000008954248  2  3  5  5  6
      -0.000000877213  2  3  5  7  8
      -0.000000877213  2  3  5  9 10
       0.000000000000  2  3  6  1  2
      -0.002027991324  2  3  6  1  3
       0.000000000000  2  3  6  1  4
      -0.000777670640  2  3  6  1  5
       0.000000000000  2  3  6  1  6
       0.000000000000  2  3  6  2  3
       0.001093454663  2  3  6  2  4
       0.000000000000  2  3  6  2  5
       0.002587221523  2  3  6  2  6
       0.000000000000  2  3  6  3  4
      -0.000002917821  2  3  6  3  5
       0.000000000000  2  3  6  3  6
       0.000000000000  2  3  6  4  5
       0.000006325722  2  3  6  4  6
       0.000000000000  2  3  6  5  6
       0.000000000000  2  3  6  7  8
       0.000000000000  2  3  6  9 10
       0.000000000000  2  4  5  1  2
       0.000720723000  2  4  5  1  3
       0.000000000000  2  4  5  1  4
      -0.000268004174  2  4  5  1  5
       0.000000000000  2  4  5  1  6
       0.000000000000  2  4  5  2  3
      -0.000736053914  2  4  5  2  4
       0.000000000000  2  4  5  2  5
      -0.000324129839  2  4  5  2  6
       0.000000000000  2  4  5  3  4
       0.000005738669  2  4  5  3  5
       0.000000000000  2  4  5  3  6
       0.000000000000  2  4  5  4  5
      -0.000006201089  2  4  5  4  6
       0.000000000000  2  4  5  5  6
       0.000000000000  2  4  5  7  8
       0.000000000000  2  4  5  9 10
      -0.001009423045  2  4  6  1  2
       0.000000000000  2  4  6  1  3
       0.000067047120  2  4  6  1  4
       0.000000000000  2  4  6  1  5
      -0.000027597374  2  4  6  1  6
      -0.000040620488  2  4  6  2  3
       0.000000000000  2  4  6  2  4
       0.000055944981  2  4  6  2  5
       0.000000000000  2  4  6  2  6
      -0.000005116523  2  4  6  3  4
       0.000000000000  2  4  6  3  5
       0.000006932114  2  4  6  3  6
      -0.000007130706  2  4  6  4  5
       0.000000000000  2  4  6  4  6
       0.000003249119  2  4  6  5  6
       0.000000000000  2  4  6  7  8
       0.000000000000  2  4  6  9 10
       0.000000000000  2  5  6  1  2
      -0.000615865127  2  5  6  1  3
       0.000000000000  2  5  6  1  4
      -0.000163911696  2  5  6  1  5
       0.000000000000  2  5  6  1  6
       0.000000000000  2  5  6  2  3
       0.000380093049  2  5  6  2  4
       0.000000000000  2  5  6  2  5
       0.000719982462  2  5  6  2  6
       0.000000000000  2  5  6  3  4
      -0.000005176345  2  5  6  3  5
       0.000000000000  2  5  6  3  6
       0.000000000000  2  5  6  4  5
       0.000007020329  2  5  6  4  6
       0.000000000000  2  5  6  5  6
       0.000000000000  2  5  6  7  8
       0.000000000000  2  5  6  9 10
       0.000000000000  2  7  8  1  2
       0.000037120804  2  7  8  1  3
       0.000000000000  2  7  8  1  4
      -0.000002261439  2  7  8  1  5
       0.000000000000  2  7  8  1  6
       0.000000000000  2  7  8  2  3
      -0.000029786923  2  7  8  2  4
       0.000000000000  2  7  8  2  5
      -0.000026805694  2  7  8  2  6
       0.000000000000  2  7  8  3  4
      -0.000000114552  2  7  8  3  5
       0.000000000000  2  7  8  3  6
       0.000000000000  2  7  8  4  5
       0.000000194988  2  7  8  4  6
       0.000000000000  2  7  8  5  6
       0.000000000000  2  7  8  7  8
       0.000000000000  2  7  8  9 10
       0.000000000000  2  9 10  1  2
       0.000037120804  2  9 10  1  3
       0.000000000000  2  9 10  1  4
      -0.000002261439  2  9 10  1  5
       0.000000000000  2  9 10  1  6
       0.000000000000  2  9 10  2  3
      -0.000029786923  2  9 10  2  4
       0.000000000000  2  9 10  2  5
      -0.000026805694  2  9 10  2  6
       0.000000000000  2  9 10  3  4
      -0.000000114552  2  9 10  3  5
       0.000000000000  2  9 10  3  6
       0.000000000000  2  9 10  4  5
       0.000000194988  2  9 10  4  6
       0.000000000000  2  9 10  5  6
       0.000000000000  2  9 10  7  8
       0.000000000000  2  9 10  9 10
      -0.000051500318  3  4  5  1  2
       0.000000000000  3  4  5  1  3
       0.000011488076  3  4  5  1  4
       0.000000000000  3  4  5  1  5
      -0.000001576567  3  4  5  1  6
      -0.000007950537  3  4  5  2  3
       0.000000000000  3  4  5  2  4
       0.000008355070  3  4  5  2  5
       0.000000000000  3  4  5  2  6
       0.000012234320  3  4  5  3  4
       0.000000000000  3  4  5  3  5
       0.000001516288  3  4  5  3  6
       0.000007093383  3  4  5  4  5
       0.000000000000  3  4  5  4  6
      -0.000002247367  3  4  5  5  6
       0.000000000000  3  4  5  7  8
       0.000000000000  3  4  5  9 10
       0.000000000000  3  4  6  1  2
      -0.000003961968  3  4  6  1  3
       0.000000000000  3  4  6  1  4
       0.000002410739  3  4  6  1  5
       0.000000000000  3  4  6  1  6
       0.000000000000  3  4  6  2  3
       0.000003997352  3  4  6  2  4
       0.000000000000  3  4  6  2  5
       0.000000662651  3  4  6  2  6
       0.000000000000  3  4  6  3  4
      -0.000007643862  3  4  6  3  5
       0.000000000000  3  4  6  3  6
       0.000000000000  3  4  6  4  5
       0.000010785916  3  4  6  4  6
       0.000000000000  3  4  6  5  6
       0.000000000000  3  4  6  7  8
       0.000000000000  3  4  6  9 10
      -0.000107734467  3  5  6  1  2
       0.000000000000  3  5  6  1  3
       0.000003139681  3  5  6  1  4
       0.000000000000  3  5  6  1  5
      -0.000004455408  3  5  6  1  6
       0.000000510244  3  5  6  2  3
       0.000000000000  3  5  6  2  4
       0.000003749338  3  5  6  2  5
       0.000000000000  3  5  6  2  6
      -0.000009190225  3  5  6  3  4
       0.000000000000  3  5  6  3  5
      -0.000004865158  3  5  6  3  6
       0.000000000000  3  5  6  4  5
       0.000000000000  3  5  6  4  6
       0.000006343456  3  5  6  5  6
       0.000000000000  3  5  6  7  8
       0.000000000000  3  5  6  9 10
      -0.000059003208  3  7  8  1  2
       0.000000000000  3  7  8  1  3
      -0.000000177393  3  7  8  1  4
       0.000000000000  3  7  8  1  5
      -0.000000585904  3  7  8  1  6
       0.000000957778  3  7  8  2  3
       0.000000000000  3  7  8  2  4
      -0.000000415654  3  7  8  2  5
       0.000000000000  3  7  8  2  6
       0.000000202601  3  7  8  3  4
       0.000000000000  3  7  8  3  5
       0.000000167374  3  7  8  3  6
       0.000000000000  3  7  8  4  5
       0.000000000000  3  7  8  4  6
       0.000000000000  3  7  8  5  6
       0.000003350755  3  7  8  7  8
       0.000000000000  3  7  8  9 10
      -0.000059003208  3  9 10  1  2
       0.000000000000  3  9 10  1  3
      -0.000000177393  3  9 10  1  4
       0.000000000000  3  9 10  1  5
      -0.000000585904  3  9 10  1  6
       0.000000957778  3  9 10  2  3
       0.000000000000  3  9 10  2  4
      -0.000000415654  3  9 10  2  5
       0.000000000000  3  9 10  2  6
       0.000000202601  3  9 10  3  4
       0.000000000000  3  9 10  3  5
       0.000000167374  3  9 10  3  6
       0.000000000000  3  9 10  4  5
       0.000000000000  3  9 10  4  6
       0.000000000000  3  9 10  5  6
       0.000000000000  3  9 10  7  8
       0.000003350755  3  9 10  9 10
       0.000000000000  4  5  6  1  2
      -0.000000890799  4  5  6  1  3
       0.000000000000  4  5  6  1  4
      -0.000002845915  4  5  6  1  5
       0.000000000000  4  5  6  1  6
       0.000000000000  4  5  6  2  3
      -0.000000976352  4  5  6  2  4
       0.000000000000  4  5  6  2  5
       0.000003777038  4  5  6  2  6
       0.000000000000  4  5  6  3  4
       0.000002252161  4  5  6  3  5
       0.000000000000  4  5  6  3  6
       0.000000000000  4  5  6  4  5
      -0.000003287996  4  5  6  4  6
       0.000000000000  4  5  6  5  6
       0.000000000000  4  5  6  7  8
       0.000000000000  4  5  6  9 10
       0.000000000000  4  7  8  1  2
      -0.000003509300  4  7  8  1  3
       0.000000000000  4  7  8  1  4
       0.000001062860  4  7  8  1  5
       0.000000000000  4  7  8  1  6
       0.000000000000  4  7  8  2  3
       0.000003335746  4  7  8  2  4
       0.000000000000  4  7  8  2  5
       0.000001711418  4  7  8  2  6
       0.000000000000  4  7  8  3  4
       0.000000000000  4  7  8  3  5
       0.000000000000  4  7  8  3  6
       0.000000000000  4  7  8  4  5
       0.000000000000  4  7  8  4  6
       0.000000000000  4  7  8  5  6
       0.000000000000  4  7  8  7  8
       0.000000000000  4  7  8  9 10
       0.000000000000  4  9 10  1  2
      -0.000003509300  4  9 10  1  3
       0.000000000000  4  9 10  1  4
       0.000001062860  4  9 10  1  5
       0.000000000000  4  9 10  1  6
       0.000000000000  4  9 10  2  3
       0.000003335746  4  9 10  2  4
       0.000000000000  4  9 10  2  5
       0.000001711418  4  9 10  2  6
       0.000000000000  4  9 10  3  4
       0.000000000000  4  9 10  3  5
       0.000000000000  4  9 10  3  6
       0.000000000000  4  9 10  4  5
       0.000000000000  4  9 10  4  6
       0.000000000000  4  9 10  5  6
       0.000000000000  4  9 10  7  8
       0.000000000000  4  9 10  9 10
      -0.000013813515  5  7  8  1  2
       0.000000000000  5  7  8  1  3
       0.000001859517  5  7  8  1  4
       0.000000000000  5  7  8  1  5
      -0.000000448311  5  7  8  1  6
      -0.000001206828  5  7  8  2  3
       0.000000000000  5  7  8  2  4
       0.000001236209  5  7  8  2  5
       0.000000000000  5  7  8  2  6
      -0.000000127786  5  7  8  3  4
       0.000000000000  5  7  8  3  5
       0.000000000000  5  7  8  3  6
      -0.000000068736  5  7  8  4  5
       0.000000000000  5  7  8  4  6
       0.000000000000  5  7  8  5  6
       0.000000815165  5  7  8  7  8
       0.000000000000  5  7  8  9 10
      -0.000013813515  5  9 10  1  2
       0.000000000000  5  9 10  1  3
       0.000001859517  5  9 10  1  4
       0.000000000000  5  9 10  1  5
      -0.000000448311  5  9 10  1  6
      -0.000001206828  5  9 10  2  3
       0.000000000000  5  9 10  2  4
       0.000001236209  5  9 10  2  5
       0.000000000000  5  9 10  2  6
      -0.000000127786  5  9 10  3  4
       0.000000000000  5  9 10  3  5
       0.000000000000  5  9 10  3  6
      -0.000000068736  5  9 10  4  5
       0.000000000000  5  9 10  4  6
       0.000000000000  5  9 10  5  6
       0.000000000000  5  9 10  7  8
       0.000000815165  5  9 10  9 10
       0.000000000000  6  7  8  1  2
      -0.000002984708  6  7  8  1  3
       0.000000000000  6  7  8  1  4
      -0.000001064402  6  7  8  1  5
       0.000000000000  6  7  8  1  6
       0.000000000000  6  7  8  2  3
       0.000001548173  6  7  8  2  4
       0.000000000000  6  7  8  2  5
       0.000003739366  6  7  8  2  6
       0.000000000000  6  7  8  3  4
       0.000000074861  6  7  8  3  5
       0.000000000000  6  7  8  3  6
       0.000000000000  6  7  8  4  5
      -0.000000116247  6  7  8  4  6
       0.000000000000  6  7  8  5  6
       0.000000000000  6  7  8  7  8
       0.000000000000  6  7  8  9 10
       0.000000000000  6  9 10  1  2
      -0.000002984708  6  9 10  1  3
       0.000000000000  6  9 10  1  4
      -0.000001064402  6  9 10  1  5
       0.000000000000  6  9 10  1  6
       0.000000000000  6  9 10  2  3
       0.000001548173  6  9 10  2  4
       0.000000000000  6  9 10  2  5
       0.000003739366  6  9 10  2  6
       0.000000000000  6  9 10  3  4
       0.000000074861  6  9 10  3  5
       0.000000000000  6  9 10  3  6
       0.000000000000  6  9 10  4  5
      -0.000000116247  6  9 10  4  6
       0.000000000000  6  9 10  5  6
       0.000000000000  6  9 10  7  8
       0.000000000000  6  9 10  9 10
       0.000000000000  1  2  7  1  7
      -0.003508332064  1  2  7  1  8
       0.003222314127  1  2  7  2  7
       0.000000000000  1  2  7  2  8
       0.000000000000  1  2  7  3  7
       0.000005101297  1  2  7  3  8
      -0.000012103873  1  2  7  4  7
       0.000000000000  1  2  7  4  8
       0.000000000000  1  2  7  5  7
      -0.000013128519  1  2  7  5  8
       0.000008417757  1  2  7  6  7
       0.000000000000  1  2  7  6  8
      -0.002117740169  1  2  8  1  7
       0.000000000000  1  2  8  1  8
       0.000000000000  1  2  8  2  7
       0.002357400174  1  2  8  2  8
       0.000004827304  1  2  8  3  7
       0.000000000000  1  2  8  3  8
       0.000000000000  1  2  8  4  7
      -0.000009165351  1  2  8  4  8
      -0.000009698476  1  2  8  5  7
       0.000000000000  1  2  8  5  8
       0.000000000000  1  2  8  6  7
       0.000010305808  1  2  8  6  8
       0.000739723009  1  3  7  1  7
       0.000000000000  1  3  7  1  8
       0.000000000000  1  3  7  2  7
      -0.000886467406  1  3  7  2  8
      -0.000008303061  1  3  7  3  7
       0.000000000000  1  3  7  3  8
       0.000000000000  1  3  7  4  7
       0.000007903146  1  3  7  4  8
       0.000002091492  1  3  7  5  7
       0.000000000000  1  3  7  5  8
       0.000000000000  1  3  7  6  7
       0.000004153958  1  3  7  6  8
       0.000000000000  1  3  8  1  7
       0.001087889648  1  3  8  1  8
      -0.000907999396  1  3  8  2  7
       0.000000000000  1  3  8  2  8
       0.000000000000  1  3  8  3  7
      -0.000008393580  1  3  8  3  8
       0.000007572496  1  3  8  4  7
       0.000000000000  1  3  8  4  8
       0.000000000000  1  3  8  5  7
       0.000003051568  1  3  8  5  8
       0.000003690870  1  3  8  6  7
       0.000000000000  1  3  8  6  8
       0.000000000000  1  4  7  1  7
       0.000087527792  1  4  7  1  8
      -0.000080873260  1  4  7  2  7
       0.000000000000  1  4  7  2  8
       0.000000000000  1  4  7  3  7
       0.000006750072  1  4  7  3  8
      -0.000006340499  1  4  7  4  7
       0.000000000000  1  4  7  4  8
       0.000000000000  1  4  7  5  7
      -0.000002595671  1  4  7  5  8
      -0.000003005208  1  4  7  6  7
       0.000000000000  1  4  7  6  8
       0.000052703636  1  4  8  1  7
       0.000000000000  1  4  8  1  8
       0.000000000000  1  4  8  2  7
      -0.000058904143  1  4  8  2  8
       0.000003444486  1  4  8  3  7
       0.000000000000  1  4  8  3  8
       0.000000000000  1  4  8  4  7
      -0.000003999247  1  4  8  4  8
      -0.000001527485  1  4  8  5  7
       0.000000000000  1  4  8  5  8
       0.000000000000  1  4  8  6  7
      -0.000001603584  1  4  8  6  8
       0.000191785818  1  5  7  1  7
       0.000000000000  1  5  7  1  8
       0.000000000000  1  5  7  2  7
      -0.000237295843  1  5  7  2  8
       0.000000343159  1  5  7  3  7
       0.000000000000  1  5  7  3  8
       0.000000000000  1  5  7  4  7
      -0.000003363056  1  5  7  4  8
      -0.000004128260  1  5  7  5  7
       0.000000000000  1  5  7  5  8
       0.000000000000  1  5  7  6  7
       0.000004124866  1  5  7  6  8
       0.000000000000  1  5  8  1  7
       0.000309892094  1  5  8  1  8
      -0.000256636901  1  5  8  2  7
       0.000000000000  1  5  8  2  8
       0.000000000000  1  5  8  3  7
      -0.000001086588  1  5  8  3  8
      -0.000001423855  1  5  8  4  7
       0.000000000000  1  5  8  4  8
       0.000000000000  1  5  8  5  7
      -0.000003805185  1  5  8  5  8
       0.000003784643  1  5  8  6  7
       0.000000000000  1  5  8  6  8
       0.000000000000  1  6  7  1  7
       0.000062507273  1  6  7  1  8
      -0.000056242437  1  6  7  2  7
       0.000000000000  1  6  7  2  8
       0.000000000000  1  6  7  3  7
       0.000006308600  1  6  7  3  8
      -0.000001863362  1  6  7  4  7
       0.000000000000  1  6  7  4  8
       0.000000000000  1  6  7  5  7
       0.000004778914  1  6  7  5  8
      -0.000009578412  1  6  7  6  7
       0.000000000000  1  6  7  6  8
       0.000040805371  1  6  8  1  7
       0.000000000000  1  6  8  1  8
       0.000000000000  1  6  8  2  7
      -0.000042569855  1  6  8  2  8
       0.000003155899  1  6  8  3  7
       0.000000000000  1  6  8  3  8
       0.000000000000  1  6  8  4  7
      -0.000000179193  1  6  8  4  8
       0.000003519690  1  6  8  5  7
       0.000000000000  1  6  8  5  8
       0.000000000000  1  6  8  6  7
      -0.000007551788  1  6  8  6  8
       0.000000000000  2  3  7  1  7
      -0.000950270869  2  3  7  1  8
       0.000793637526  2  3  7  2  7
       0.000000000000  2  3  7  2  8
       0.000000000000  2  3  7  3  7
      -0.000009262561  2  3  7  3  8
       0.000005370212  2  3  7  4  7
       0.000000000000  2  3  7  4  8
       0.000000000000  2  3  7  5  7
      -0.000001823952  2  3  7  5  8
       0.000008504718  2  3  7  6  7
       0.000000000000  2  3  7  6  8
      -0.000854159741  2  3  8  1  7
       0.000000000000  2  3  8  1  8
       0.000000000000  2  3  8  2  7
       0.001017281303  2  3  8  2  8
      -0.000008335574  2  3  8  3  7
       0.000000000000  2  3  8  3  8
       0.000000000000  2  3  8  4  7
       0.000006602393  2  3  8  4  8
      -0.000002087699  2  3  8  5  7
       0.000000000000  2  3  8  5  8
       0.000000000000  2  3  8  6  7
       0.000011601231  2  3  8  6  8
      -0.000068705366  2  4  7  1  7
       0.000000000000  2  4  7  1  8
       0.000000000000  2  4  7  2  7
       0.000075142897  2  4  7  2  8
       0.000008812773  2  4  7  3  7
       0.000000000000  2  4  7  3  8
       0.000000000000  2  4  7  4  7
      -0.000009204666  2  4  7  4  8
      -0.000002346051  2  4  7  5  7
       0.000000000000  2  4  7  5  8
       0.000000000000  2  4  7  6  7
      -0.000005067037  2  4  7  6  8
       0.000000000000  2  4  8  1  7
      -0.000049762259  2  4  8  1  8
       0.000045240900  2  4  8  2  7
       0.000000000000  2  4  8  2  8
       0.000000000000  2  4  8  3  7
       0.000007232566  2  4  8  3  8
      -0.000005858179  2  4  8  4  7
       0.000000000000  2  4  8  4  8
       0.000000000000  2  4  8  5  7
      -0.000001568666  2  4  8  5  8
      -0.000003497406  2  4  8  6  7
       0.000000000000  2  4  8  6  8
       0.000000000000  2  5  7  1  7
      -0.000241237065  2  5  7  1  8
       0.000196591933  2  5  7  2  7
       0.000000000000  2  5  7  2  8
       0.000000000000  2  5  7  3  7
       0.000001646530  2  5  7  3  8
      -0.000002337746  2  5  7  4  7
       0.000000000000  2  5  7  4  8
       0.000000000000  2  5  7  5  7
      -0.000001803398  2  5  7  5  8
       0.000001210844  2  5  7  6  7
       0.000000000000  2  5  7  6  8
      -0.000229700842  2  5  8  1  7
       0.000000000000  2  5  8  1  8
       0.000000000000  2  5  8  2  7
       0.000277276519  2  5  8  2  8
       0.000000367812  2  5  8  3  7
       0.000000000000  2  5  8  3  8
       0.000000000000  2  5  8  4  7
      -0.000000418568  2  5  8  4  8
      -0.000000630231  2  5  8  5  7
       0.000000000000  2  5  8  5  8
       0.000000000000  2  5  8  6  7
       0.000001292710  2  5  8  6  8
      -0.000064642624  2  6  7  1  7
       0.000000000000  2  6  7  1  8
       0.000000000000  2  6  7  2  7
       0.000073945849  2  6  7  2  8
       0.000008226014  2  6  7  3  7
       0.000000000000  2  6  7  3  8
       0.000000000000  2  6  7  4  7
      -0.000006460310  2  6  7  4  8
       0.000001110325  2  6  7  5  7
       0.000000000000  2  6  7  5  8
       0.000000000000  2  6  7  6  7
      -0.000008849901  2  6  7  6  8
       0.000000000000  2  6  8  1  7
      -0.000052816078  2  6  8  1  8
       0.000047079486  2  6  8  2  7
       0.000000000000  2  6  8  2  8
       0.000000000000  2  6  8  3  7
       0.000006870089  2  6  8  3  8
      -0.000004638041  2  6  8  4  7
       0.000000000000  2  6  8  4  8
       0.000000000000  2  6  8  5  7
       0.000000000000  2  6  8  5  8
      -0.000005095607  2  6  8  6  7
       0.000000000000  2  6  8  6  8
       0.000000000000  3  4  7  1  7
      -0.000004330024  3  4  7  1  8
       0.000003364668  3  4  7  2  7
       0.000000000000  3  4  7  2  8
       0.000000000000  3  4  7  3  7
      -0.000004749061  3  4  7  3  8
       0.000003865786  3  4  7  4  7
       0.000000000000  3  4  7  4  8
       0.000000000000  3  4  7  5  7
       0.000001463418  3  4  7  5  8
       0.000002067349  3  4  7  6  7
       0.000000000000  3  4  7  6  8
      -0.000001024904  3  4  8  1  7
       0.000000000000  3  4  8  1  8
       0.000000000000  3  4  8  2  7
       0.000000521818  3  4  8  2  8
      -0.000004567993  3  4  8  3  7
       0.000000000000  3  4  8  3  8
       0.000000000000  3  4  8  4  7
       0.000005343273  3  4  8  4  8
       0.000001426655  3  4  8  5  7
       0.000000000000  3  4  8  5  8
       0.000000000000  3  4  8  6  7
       0.000002802909  3  4  8  6  8
      -0.000001731531  3  5  7  1  7
       0.000000000000  3  5  7  1  8
       0.000000000000  3  5  7  2  7
       0.000002522799  3  5  7  2  8
      -0.000001496119  3  5  7  3  7
       0.000000000000  3  5  7  3  8
       0.000000000000  3  5  7  4  7
       0.000002635160  3  5  7  4  8
       0.000001576429  3  5  7  5  7
       0.000000000000  3  5  7  5  8
       0.000000000000  3  5  7  6  7
      -0.000000544084  3  5  7  6  8
       0.000000000000  3  5  8  1  7
      -0.000004077585  3  5  8  1  8
       0.000003325535  3  5  8  2  7
       0.000000000000  3  5  8  2  8
       0.000000000000  3  5  8  3  7
      -0.000002116850  3  5  8  3  8
       0.000002596340  3  5  8  4  7
       0.000000000000  3  5  8  4  8
       0.000000000000  3  5  8  5  7
       0.000002197059  3  5  8  5  8
      -0.000000524179  3  5  8  6  7
       0.000000000000  3  5  8  6  8
       0.000000000000  3  6  7  1  7
      -0.000000389509  3  6  7  1  8
      -0.000000297341  3  6  7  2  7
       0.000000000000  3  6  7  2  8
       0.000000000000  3  6  7  3  7
      -0.000004254006  3  6  7  3  8
       0.000001954643  3  6  7  4  7
       0.000000000000  3  6  7  4  8
       0.000000000000  3  6  7  5  7
      -0.000001587930  3  6  7  5  8
       0.000004480754  3  6  7  6  7
       0.000000000000  3  6  7  6  8
       0.000001975236  3  6  8  1  7
       0.000000000000  3  6  8  1  8
       0.000000000000  3  6  8  2  7
      -0.000004687600  3  6  8  2  8
      -0.000004091990  3  6  8  3  7
       0.000000000000  3  6  8  3  8
       0.000000000000  3  6  8  4  7
       0.000002707541  3  6  8  4  8
      -0.000001496827  3  6  8  5  7
       0.000000000000  3  6  8  5  8
       0.000000000000  3  6  8  6  7
       0.000006235703  3  6  8  6  8
       0.000000000000  4  5  7  1  7
       0.000000000000  4  5  7  1  8
       0.000000000000  4  5  7  2  7
       0.000000000000  4  5  7  2  8
       0.000000000000  4  5  7  3  7
       0.000001156573  4  5  7  3  8
      -0.000000868380  4  5  7  4  7
       0.000000000000  4  5  7  4  8
       0.000000000000  4  5  7  5  7
      -0.000000325311  4  5  7  5  8
      -0.000000537557  4  5  7  6  7
       0.000000000000  4  5  7  6  8
      -0.000000810343  4  5  8  1  7
       0.000000000000  4  5  8  1  8
       0.000000000000  4  5  8  2  7
       0.000001155817  4  5  8  2  8
       0.000001211175  4  5  8  3  7
       0.000000000000  4  5  8  3  8
       0.000000000000  4  5  8  4  7
      -0.000001459578  4  5  8  4  8
      -0.000000395406  4  5  8  5  7
       0.000000000000  4  5  8  5  8
       0.000000000000  4  5  8  6  7
      -0.000000777471  4  5  8  6  8
       0.000001105099  4  6  7  1  7
       0.000000000000  4  6  7  1  8
       0.000000000000  4  6  7  2  7
      -0.000001274349  4  6  7  2  8
      -0.000000106924  4  6  7  3  7
       0.000000000000  4  6  7  3  8
       0.000000000000  4  6  7  4  7
       0.000000000000  4  6  7  4  8
      -0.000000121768  4  6  7  5  7
       0.000000000000  4  6  7  5  8
       0.000000000000  4  6  7  6  7
       0.000000240238  4  6  7  6  8
       0.000000000000  4  6  8  1  7
       0.000001435143  4  6  8  1  8
      -0.000001150923  4  6  8  2  7
       0.000000000000  4  6  8  2  8
       0.000000000000  4  6  8  3  7
      -0.000000112032  4  6  8  3  8
       0.000000000000  4  6  8  4  7
       0.000000000000  4  6  8  4  8
       0.000000000000  4  6  8  5  7
       0.000000000000  4  6  8  5  8
       0.000000119005  4  6  8  6  7
       0.000000000000  4  6  8  6  8
       0.000000000000  5  6  7  1  7
      -0.000000087025  5  6  7  1  8
      -0.000000108198  5  6  7  2  7
       0.000000000000  5  6  7  2  8
       0.000000000000  5  6  7  3  7
      -0.000001004988  5  6  7  3  8
       0.000000415641  5  6  7  4  7
       0.000000000000  5  6  7  4  8
       0.000000000000  5  6  7  5  7
      -0.000000449677  5  6  7  5  8
       0.000001121487  5  6  7  6  7
       0.000000000000  5  6  7  6  8
       0.000000526858  5  6  8  1  7
       0.000000000000  5  6  8  1  8
       0.000000000000  5  6  8  2  7
      -0.000001202688  5  6  8  2  8
      -0.000001054908  5  6  8  3  7
       0.000000000000  5  6  8  3  8
       0.000000000000  5  6  8  4  7
       0.000000745173  5  6  8  4  8
      -0.000000416468  5  6  8  5  7
       0.000000000000  5  6  8  5  8
       0.000000000000  5  6  8  6  7
       0.000001681172  5  6  8  6  8
       0.000000000000  7  9 10  1  7
      -0.000001132193  7  9 10  1  8
       0.000000896919  7  9 10  2  7
       0.000000000000  7  9 10  2  8
       0.000000000000  7  9 10  3  7
       0.000000000000  7  9 10  3  8
       0.000000000000  7  9 10  4  7
       0.000000000000  7  9 10  4  8
       0.000000000000  7  9 10  5  7
       0.000000000000  7  9 10  5  8
       0.000000000000  7  9 10  6  7
       0.000000000000  7  9 10  6  8
      -0.000001131198  8  9 10  1  7
       0.000000000000  8  9 10  1  8
       0.000000000000  8  9 10  2  7
       0.000001361991  8  9 10  2  8
       0.000000000000  8  9 10  3  7
       0.000000000000  8  9 10  3  8
       0.000000000000  8  9 10  4  7
       0.000000000000  8  9 10  4  8
       0.000000000000  8  9 10  5  7
       0.000000000000  8  9 10  5  8
       0.000000000000  8  9 10  6  7
       0.000000000000  8  9 10  6  8
       0.000000000000  1  2  9  1  9
      -0.003508332064  1  2  9  1 10
       0.003222314127  1  2  9  2  9
       0.000000000000  1  2  9  2 10
       0.000000000000  1  2  9  3  9
       0.000005101297  1  2  9  3 10
      -0.000012103873  1  2  9  4  9
       0.000000000000  1  2  9  4 10
       0.000000000000  1  2  9  5  9
      -0.000013128519  1  2  9  5 10
       0.000008417757  1  2  9  6  9
       0.000000000000  1  2  9  6 10
      -0.002117740169  1  2 10  1  9
       0.000000000000  1  2 10  1 10
       0.000000000000  1  2 10  2  9
       0.002357400174  1  2 10  2 10
       0.000004827304  1  2 10  3  9
       0.000000000000  1  2 10  3 10
       0.000000000000  1  2 10  4  9
      -0.000009165351  1  2 10  4 10
      -0.000009698476  1  2 10  5  9
       0.000000000000  1  2 10  5 10
       0.000000000000  1  2 10  6  9
       0.000010305808  1  2 10  6 10
       0.000739723009  1  3  9  1  9
       0.000000000000  1  3  9  1 10
       0.000000000000  1  3  9  2  9
      -0.000886467406  1  3  9  2 10
      -0.000008303061  1  3  9  3  9
       0.000000000000  1  3  9  3 10
       0.000000000000  1  3  9  4  9
       0.000007903146  1  3  9  4 10
       0.000002091492  1  3  9  5  9
       0.000000000000  1  3  9  5 10
       0.000000000000  1  3  9  6  9
       0.000004153958  1  3  9  6 10
       0.000000000000  1  3 10  1  9
       0.001087889648  1  3 10  1 10
      -0.000907999396  1  3 10  2  9
       0.000000000000  1  3 10  2 10
       0.000000000000  1  3 10  3  9
      -0.000008393580  1  3 10  3 10
       0.000007572496  1  3 10  4  9
       0.000000000000  1  3 10  4 10
       0.000000000000  1  3 10  5  9
       0.000003051568  1  3 10  5 10
       0.000003690870  1  3 10  6  9
       0.000000000000  1  3 10  6 10
       0.000000000000  1  4  9  1  9
       0.000087527792  1  4  9  1 10
      -0.000080873260  1  4  9  2  9
       0.000000000000  1  4  9  2 10
       0.000000000000  1  4  9  3  9
       0.000006750072  1  4  9  3 10
      -0.000006340499  1  4  9  4  9
       0.000000000000  1  4  9  4 10
       0.000000000000  1  4  9  5  9
      -0.000002595671  1  4  9  5 10
      -0.000003005208  1  4  9  6  9
       0.000000000000  1  4  9  6 10
       0.000052703636  1  4 10  1  9
       0.000000000000  1  4 10  1 10
       0.000000000000  1  4 10  2  9
      -0.000058904143  1  4 10  2 10
       0.000003444486  1  4 10  3  9
       0.000000000000  1  4 10  3 10
       0.000000000000  1  4 10  4  9
      -0.000003999247  1  4 10  4 10
      -0.000001527485  1  4 10  5  9
       0.000000000000  1  4 10  5 10
       0.000000000000  1  4 10  6  9
      -0.000001603584  1  4 10  6 10
       0.000191785818  1  5  9  1  9
       0.000000000000  1  5  9  1 10
       0.000000000000  1  5  9  2  9
      -0.000237295843  1  5  9  2 10
       0.000000343159  1  5  9  3  9
       0.000000000000  1  5  9  3 10
       0.000000000000  1  5  9  4  9
      -0.000003363056  1  5  9  4 10
      -0.000004128260  1  5  9  5  9
       0.000000000000  1  5  9  5 10
       0.000000000000  1  5  9  6  9
       0.000004124866  1  5  9  6 10
       0.000000000000  1  5 10  1  9
       0.000309892094  1  5 10  1 10
      -0.000256636901  1  5 10  2  9
       0.000000000000  1  5 10  2 10
       0.000000000000  1  5 10  3  9
      -0.000001086588  1  5 10  3 10
      -0.000001423855  1  5 10  4  9
       0.000000000000  1  5 10  4 10
       0.000000000000  1  5 10  5  9
      -0.000003805185  1  5 10  5 10
       0.000003784643  1  5 10  6  9
       0.000000000000  1  5 10  6 10
       0.000000000000  1  6  9  1  9
       0.000062507273  1  6  9  1 10
      -0.000056242437  1  6  9  2  9
       0.000000000000  1  6  9  2 10
       0.000000000000  1  6  9  3  9
       0.000006308600  1  6  9  3 10
      -0.000001863362  1  6  9  4  9
       0.000000000000  1  6  9  4 10
       0.000000000000  1  6  9  5  9
       0.000004778914  1  6  9  5 10
      -0.000009578412  1  6  9  6  9
       0.000000000000  1  6  9  6 10
       0.000040805371  1  6 10  1  9
       0.000000000000  1  6 10  1 10
       0.000000000000  1  6 10  2  9
      -0.000042569855  1  6 10  2 10
       0.000003155899  1  6 10  3  9
       0.000000000000  1  6 10  3 10
       0.000000000000  1  6 10  4  9
      -0.000000179193  1  6 10  4 10
       0.000003519690  1  6 10  5  9
       0.000000000000  1  6 10  5 10
       0.000000000000  1  6 10  6  9
      -0.000007551788  1  6 10  6 10
       0.000000000000  2  3  9  1  9
      -0.000950270869  2  3  9  1 10
       0.000793637526  2  3  9  2  9
       0.000000000000  2  3  9  2 10
       0.000000000000  2  3  9  3  9
      -0.000009262561  2  3  9  3 10
       0.000005370212  2  3  9  4  9
       0.000000000000  2  3  9  4 10
       0.000000000000  2  3  9  5  9
      -0.000001823952  2  3  9  5 10
       0.000008504718  2  3  9  6  9
       0.000000000000  2  3  9  6 10
      -0.000854159741  2  3 10  1  9
       0.000000000000  2  3 10  1 10
       0.000000000000  2  3 10  2  9
       0.001017281303  2  3 10  2 10
      -0.000008335574  2  3 10  3  9
       0.000000000000  2  3 10  3 10
       0.000000000000  2  3 10  4  9
       0.000006602393  2  3 10  4 10
      -0.000002087699  2  3 10  5  9
       0.000000000000  2  3 10  5 10
       0.000000000000  2  3 10  6  9
       0.000011601231  2  3 10  6 10
      -0.000068705366  2  4  9  1  9
       0.000000000000  2  4  9  1 10
       0.000000000000  2  4  9  2  9
       0.000075142897  2  4  9  2 10
       0.000008812773  2  4  9  3  9
       0.000000000000  2  4  9  3 10
       0.000000000000  2  4  9  4  9
      -0.000009204666  2  4  9  4 10
      -0.000002346051  2  4  9  5  9
       0.000000000000  2  4  9  5 10
       0.000000000000  2  4  9  6  9
      -0.000005067037  2  4  9  6 10
       0.000000000000  2  4 10  1  9
      -0.000049762259  2  4 10  1 10
       0.000045240900  2  4 10  2  9
       0.000000000000  2  4 10  2 10
       0.000000000000  2  4 10  3  9
       0.000007232566  2  4 10  3 10
      -0.000005858179  2  4 10  4  9
       0.000000000000  2  4 10  4 10
       0.000000000000  2  4 10  5  9
      -0.000001568666  2  4 10  5 10
      -0.000003497406  2  4 10  6  9
       0.000000000000  2  4 10  6 10
       0.000000000000  2  5  9  1  9
      -0.000241237065  2  5  9  1 10
       0.000196591933  2  5  9  2  9
       0.000000000000  2  5  9  2 10
       0.000000000000  2  5  9  3  9
       0.000001646530  2  5  9  3 10
      -0.000002337746  2  5  9  4  9
       0.000000000000  2  5  9  4 10
       0.000000000000  2  5  9  5  9
      -0.000001803398  2  5  9  5 10
       0.000001210844  2  5  9  6  9
       0.000000000000  2  5  9  6 10
      -0.000229700842  2  5 10  1  9
       0.000000000000  2  5 10  1 10
       0.000000000000  2  5 10  2  9
       0.000277276519  2  5 10  2 10
       0.000000367812  2  5 10  3  9
       0.000000000000  2  5 10  3 10
       0.000000000000  2  5 10  4  9
      -0.000000418568  2  5 10  4 10
      -0.000000630231  2  5 10  5  9
       0.000000000000  2  5 10  5 10
       0.000000000000  2  5 10  6  9
       0.000001292710  2  5 10  6 10
      -0.000064642624  2  6  9  1  9
       0.000000000000  2  6  9  1 10
       0.000000000000  2  6  9  2  9
       0.000073945849  2  6  9  2 10
       0.000008226014  2  6  9  3  9
       0.000000000000  2  6  9  3 10
       0.000000000000  2  6  9  4  9
      -0.000006460310  2  6  9  4 10
       0.000001110325  2  6  9  5  9
       0.000000000000  2  6  9  5 10
       0.000000000000  2  6  9  6  9
      -0.000008849901  2  6  9  6 10
       0.000000000000  2  6 10  1  9
      -0.000052816078  2  6 10  1 10
       0.000047079486  2  6 10  2  9
       0.000000000000  2  6 10  2 10
       0.000000000000  2  6 10  3  9
       0.000006870089  2  6 10  3 10
      -0.000004638041  2  6 10  4  9
       0.000000000000  2  6 10  4 10
       0.000000000000  2  6 10  5  9
       0.000000000000  2  6 10  5 10
      -0.000005095607  2  6 10  6  9
       0.000000000000  2  6 10  6 10
       0.000000000000  3  4  9  1  9
      -0.000004330024  3  4  9  1 10
       0.000003364668  3  4  9  2  9
       0.000000000000  3  4  9  2 10
       0.000000000000  3  4  9  3  9
      -0.000004749061  3  4  9  3 10
       0.000003865786  3  4  9  4  9
       0.000000000000  3  4  9  4 10
       0.000000000000  3  4  9  5  9
       0.000001463418  3  4  9  5 10
       0.000002067349  3  4  9  6  9
       0.000000000000  3  4  9  6 10
      -0.000001024904  3  4 10  1  9
       0.000000000000  3  4 10  1 10
       0.000000000000  3  4 10  2  9
       0.000000521818  3  4 10  2 10
      -0.000004567993  3  4 10  3  9
       0.000000000000  3  4 10  3 10
       0.000000000000  3  4 10  4  9
       0.000005343273  3  4 10  4 10
       0.000001426655  3  4 10  5  9
       0.000000000000  3  4 10  5 10
       0.000000000000  3  4 10  6  9
       0.000002802909  3  4 10  6 10
      -0.000001731531  3  5  9  1  9
       0.000000000000  3  5  9  1 10
       0.000000000000  3  5  9  2  9
       0.000002522799  3  5  9  2 10
      -0.000001496119  3  5  9  3  9
       0.000000000000  3  5  9  3 10
       0.000000000000  3  5  9  4  9
       0.000002635160  3  5  9  4 10
       0.000001576429  3  5  9  5  9
       0.000000000000  3  5  9  5 10
       0.000000000000  3  5  9  6  9
      -0.000000544084  3  5  9  6 10
       0.000000000000  3  5 10  1  9
      -0.000004077585  3  5 10  1 10
       0.000003325535  3  5 10  2  9
       0.000000000000  3  5 10  2 10
       0.000000000000  3  5 10  3  9
      -0.000002116850  3  5 10  3 10
       0.000002596340  3  5 10  4  9
       0.000000000000  3  5 10  4 10
       0.000000000000  3  5 10  5  9
       0.000002197059  3  5 10  5 10
      -0.000000524179  3  5 10  6  9
       0.000000000000  3  5 10  6 10
       0.000000000000  3  6  9  1  9
      -0.000000389509  3  6  9  1 10
      -0.000000297341  3  6  9  2  9
       0.000000000000  3  6  9  2 10
       0.000000000000  3  6  9  3  9
      -0.000004254006  3  6  9  3 10
       0.000001954643  3  6  9  4  9
       0.000000000000  3  6  9  4 10
       0.000000000000  3  6  9  5  9
      -0.000001587930  3  6  9  5 10
       0.000004480754  3  6  9  6  9
       0.000000000000  3  6  9  6 10
       0.000001975236  3  6 10  1  9
       0.000000000000  3  6 10  1 10
       0.000000000000  3  6 10  2  9
      -0.000004687600  3  6 10  2 10
      -0.000004091990  3  6 10  3  9
       0.000000000000  3  6 10  3 10
       0.000000000000  3  6 10  4  9
       0.000002707541  3  6 10  4 10
      -0.000001496827  3  6 10  5  9
       0.000000000000  3  6 10  5 10
       0.000000000000  3  6 10  6  9
       0.000006235703  3  6 10  6 10
       0.000000000000  4  5  9  1  9
       0.000000000000  4  5  9  1 10
       0.000000000000  4  5  9  2  9
       0.000000000000  4  5  9  2 10
       0.000000000000  4  5  9  3  9
       0.000001156573  4  5  9  3 10
      -0.000000868380  4  5  9  4  9
       0.000000000000  4  5  9  4 10
       0.000000000000  4  5  9  5  9
      -0.000000325311  4  5  9  5 10
      -0.000000537557  4  5  9  6  9
       0.000000000000  4  5  9  6 10
      -0.000000810343  4  5 10  1  9
       0.000000000000  4  5 10  1 10
       0.000000000000  4  5 10  2  9
       0.000001155817  4  5 10  2 10
       0.000001211175  4  5 10  3  9
       0.000000000000  4  5 10  3 10
       0.000000000000  4  5 10  4  9
      -0.000001459578  4  5 10  4 10
      -0.000000395406  4  5 10  5  9
       0.000000000000  4  5 10  5 10
       0.000000000000  4  5 10  6  9
      -0.000000777471  4  5 10  6 10
       0.000001105099  4  6  9  1  9
       0.000000000000  4  6  9  1 10
       0.000000000000  4  6  9  2  9
      -0.000001274349  4  6  9  2 10
      -0.000000106924  4  6  9  3  9
       0.000000000000  4  6  9  3 10
       0.000000000000  4  6  9  4  9
       0.000000000000  4  6  9  4 10
      -0.000000121768  4  6  9  5  9
       0.000000000000  4  6  9  5 10
       0.000000000000  4  6  9  6  9
       0.000000240238  4  6  9  6 10
       0.000000000000  4  6 10  1  9
       0.000001435143  4  6 10  1 10
      -0.000001150923  4  6 10  2  9
       0.000000000000  4  6 10  2 10
       0.000000000000  4  6 10  3  9
      -0.000000112032  4  6 10  3 10
       0.000000000000  4  6 10  4  9
       0.000000000000  4  6 10  4 10
       0.000000000000  4  6 10  5  9
       0.000000000000  4  6 10  5 10
       0.000000119005  4  6 10  6  9
       0.000000000000  4  6 10  6 10
       0.000000000000  5  6  9  1  9
      -0.000000087025  5  6  9  1 10
      -0.000000108198  5  6  9  2  9
       0.000000000000  5  6  9  2 10
       0.000000000000  5  6  9  3  9
      -0.000001004988  5  6  9  3 10
       0.000000415641  5  6  9  4  9
       0.000000000000  5  6  9  4 10
       0.000000000000  5  6  9  5  9
      -0.000000449677  5  6  9  5 10
       0.000001121487  5  6  9  6  9
       0.000000000000  5  6  9  6 10
       0.000000526858  5  6 10  1  9
       0.000000000000  5  6 10  1 10
       0.000000000000  5  6 10  2  9
      -0.000001202688  5  6 10  2 10
      -0.000001054908  5  6 10  3  9
       0.000000000000  5  6 10  3 10
       0.000000000000  5  6 10  4  9
       0.000000745173  5  6 10  4 10
      -0.000000416468  5  6 10  5  9
       0.000000000000  5  6 10  5 10
       0.000000000000  5  6 10  6  9
       0.000001681172  5  6 10  6 10
       0.000000000000  7  8  9  1  9
      -0.000001132193  7  8  9  1 10
       0.000000896919  7  8  9  2  9
       0.000000000000  7  8  9  2 10
       0.000000000000  7  8  9  3  9
       0.000000000000  7  8  9  3 10
       0.000000000000  7  8  9  4  9
       0.000000000000  7  8  9  4 10
       0.000000000000  7  8  9  5  9
       0.000000000000  7  8  9  5 10
       0.000000000000  7  8  9  6  9
       0.000000000000  7  8  9  6 10
      -0.000001131198  7  8 10  1  9
       0.000000000000  7  8 10  1 10
       0.000000000000  7  8 10  2  9
       0.000001361991  7  8 10  2 10
       0.000000000000  7  8 10  3  9
       0.000000000000  7  8 10  3 10
       0.000000000000  7  8 10  4  9
       0.000000000000  7  8 10  4 10
       0.000000000000  7  8 10  5  9
       0.000000000000  7  8 10  5 10
       0.000000000000  7  8 10  6  9
       0.000000000000  7  8 10  6 10
      -0.000004362504  1  7  9  7  9
       0.000000000000  1  7  9  7 10
       0.000000000000  1  7  9  8  9
       0.000005876286  1  7  9  8 10
       0.000000000000  1  7 10  7  9
      -0.000004919930  1  7 10  7 10
       0.000004735486  1  7 10  8  9
       0.000000000000  1  7 10  8 10
       0.000000000000  1  8  9  7  9
       0.000004735486  1  8  9  7 10
      -0.000004919930  1  8  9  8  9
       0.000000000000  1  8  9  8 10
       0.000003629344  1  8 10  7  9
       0.000000000000  1  8 10  7 10
       0.000000000000  1  8 10  8  9
      -0.000004851977  1  8 10  8 10
       0.000000000000  2  7  9  7  9
       0.000000282388  2  7  9  7 10
       0.000000282388  2  7  9  8  9
       0.000000000000  2  7  9  8 10
       0.000001241210  2  7 10  7  9
       0.000000000000  2  7 10  7 10
       0.000000000000  2  7 10  8  9
      -0.000001517710  2  7 10  8 10
       0.000001241210  2  8  9  7  9
       0.000000000000  2  8  9  7 10
       0.000000000000  2  8  9  8  9
      -0.000001517710  2  8  9  8 10
       0.000000000000  2  8 10  7  9
      -0.000000144922  2  8 10  7 10
      -0.000000144922  2  8 10  8  9
       0.000000000000  2  8 10  8 10
       0.000001182539  3  7  9  7  9
       0.000000000000  3  7  9  7 10
       0.000000000000  3  7  9  8  9
      -0.000001715998  3  7  9  8 10
       0.000000000000  3  7 10  7  9
       0.000001669334  3  7 10  7 10
      -0.000001666071  3  7 10  8  9
       0.000000000000  3  7 10  8 10
       0.000000000000  3  8  9  7  9
      -0.000001666071  3  8  9  7 10
       0.000001669334  3  8  9  8  9
       0.000000000000  3  8  9  8 10
      -0.000001561042  3  8 10  7  9
       0.000000000000  3  8 10  7 10
       0.000000000000  3  8 10  8  9
       0.000002335335  3  8 10  8 10
       0.000000000000  4  7  9  7  9
       0.000000000000  4  7  9  7 10
       0.000000000000  4  7  9  8  9
       0.000000000000  4  7  9  8 10
       0.000000000000  4  7 10  7  9
       0.000000000000  4  7 10  7 10
       0.000000000000  4  7 10  8  9
       0.000000069612  4  7 10  8 10
       0.000000000000  4  8  9  7  9
       0.000000000000  4  8  9  7 10
       0.000000000000  4  8  9  8  9
       0.000000069612  4  8  9  8 10
       0.000000000000  4  8 10  7  9
       0.000000000000  4  8 10  7 10
       0.000000000000  4  8 10  8  9
       0.000000000000  4  8 10  8 10
       0.000000264372  5  7  9  7  9
       0.000000000000  5  7  9  7 10
       0.000000000000  5  7  9  8  9
      -0.000000399622  5  7  9  8 10
       0.000000000000  5  7 10  7  9
       0.000000404368  5  7 10  7 10
      -0.000000407822  5  7 10  8  9
       0.000000000000  5  7 10  8 10
       0.000000000000  5  8  9  7  9
      -0.000000407822  5  8  9  7 10
       0.000000404368  5  8  9  8  9
       0.000000000000  5  8  9  8 10
      -0.000000412695  5  8 10  7  9
       0.000000000000  5  8 10  7 10
       0.000000000000  5  8 10  8  9
       0.000000616780  5  8 10  8 10
       0.000000000000  6  7  9  7  9
       0.000000000000  6  7  9  7 10
       0.000000000000  6  7  9  8  9
       0.000000000000  6  7  9  8 10
       0.000000000000  6  7 10  7  9
       0.000000000000  6  7 10  7 10
       0.000000000000  6  7 10  8  9
       0.000000000000  6  7 10  8 10
       0.000000000000  6  8  9  7  9
       0.000000000000  6  8  9  7 10
       0.000000000000  6  8  9  8  9
       0.000000000000  6  8  9  8 10
       0.000000000000  6  8 10  7  9
       0.000000000000  6  8 10  7 10
       0.000000000000  6  8 10  8  9
       0.000000000000  6  8 10  8 10
 /EOF
 !FCI STATE  1.1 Dipole moment          0.00000000     0.00000000     0.00000000
 Dipole moment /Debye                   0.00000000     0.00000000     0.00000000


 **********************************************************************************************************************************
 DATASETS  * FILE   NREC   LENGTH (MB)   RECORD NAMES
              1      19       29.94       500      700      610      900      950      970     1000      129      960     1100   
                                          VAR     GEOM    BASINP   SYMINP    ZMAT    AOBASIS   BASIS     P2S    ABASIS      S 
                                         1400     1410     1200     1210     1080     1600     1650     1300     1700   
                                           T        V       H0       H01     AOSYM     SMH    MOLCAS    ERIS     OPER   

              3       5       14.77       500      610      700     1000     2100   
                                          VAR    BASINP    GEOM     BASIS     RHF  

 PROGRAMS   *        TOTAL       FCI       INT   RESTART
 CPU TIMES  *         0.31      0.02      0.18      0.02
 REAL TIME  *         0.51 SEC
 DISK USED  *        49.42 MB
 **********************************************************************************************************************************
 Molecular orbitals read from record     2100.3  Type=RHF/CANONICAL (state 1.1)
 Occupation numbers read from record     2100.3  Type=RHF/RHF (state 1.1)
 Orbital energies read from record       2100.3  Type=RHF/CANONICAL (state 1.1)
 Redundancy group numbers read from rec  2100.3  Type=RHF/RHF (state 1.1)

 FCI/STO-3G energy=    -14.502503948737

             FCI
    -14.50250395
 **********************************************************************************************************************************
 Molpro calculation terminated
