
 Primary working directories    : /scr/yuriaoto/job.032870/molpro.qKMSblS45w
 Secondary working directories  : /scr/yuriaoto/job.032870/molpro.qKMSblS45w
 Wavefunction directory         : /scr/yuriaoto/job.032870/
 Main file repository           : /scr/yuriaoto/job.032870/molpro.qKMSblS45w/

 id        : yuriaoto

 Nodes             nprocs
 t-rex.ufabc.int.br    1

 Using customized tuning parameters: mindgm=8; mindgv=16; mindgc=1; mindgr=1; noblas=0; minvec=7
 default implementation of scratch files=df  


 Variables initialized (933), CPU time= 0.01 sec
 ***,
 memory,40,m
 gprint,orbital,basis,civector
 gthresh,thrprint=0,printci=0.0
 file,3,wfu.dat,old
 
 {ccsd,CC_NORM_MAX=10.0
 thresh,printci=0.0,ENERGY=1.0E-10,COEFF=1.0E-12
 print,ref=1
 wf,17,1,1;
 }
 
 Commands  initialized (760), CPU time= 0.01 sec, 617 directives.
 Default parameters read. Elapsed time= 0.05 sec

 Checking input...
 Passed
1


                                         ***  PROGRAM SYSTEM MOLPRO  ***
                                       Copyright, TTI GmbH Stuttgart, 2015
                                    Version 2019.2 linked Abr  7 2019 15:10:35


 **********************************************************************************************************************************
 LABEL *                                                                                 
  64 bit serial version                                                                  DATE: 14-Feb-21          TIME: 18:16:20  
 **********************************************************************************************************************************

 SHA1:             3a8a58c585c929645742fb5a1b7541a4ad1da699
 **********************************************************************************************************************************


 THRESHOLDS:

 ZERO    =  1.00D-12  ONEINT  =  1.00D-12  TWOINT  =  1.00D-11  PREFAC  =  1.00D-14  XXXXXX  =  1.00D-09  EORDER  =  1.00D-04
 ENERGY  =  0.00D+00  ETEST   =  0.00D+00  EDENS   =  0.00D+00  THRDEDEF=  1.00D-06  GRADIENT=  1.00D-02  STEP    =  1.00D-03
 ORBITAL =  1.00D-05  CIVEC   =  1.00D-05  COEFF   =  1.00D-04  PRINTCI =  0.00D+00  PUNCHCI =  9.90D+01  OPTGRAD =  3.00D-04
 OPTENERG=  1.00D-06  OPTSTEP =  3.00D-04  THRGRAD =  1.00D-10  COMPRESS=  1.00D-11  VARMIN  =  1.00D-07  VARMAX  =  1.00D-03
 THRDOUB =  0.00D+00  THRDIV  =  1.00D-05  THRRED  =  1.00D-07  THRPSP  =  1.00D+00  THRDC   =  1.00D-10  THRCS   =  1.00D-10
 THRNRM  =  1.00D-08  THREQ   =  0.00D+00  THRDE   =  1.00D+00  THRREF  =  1.00D-05  SPARFAC =  1.00D+00  THRDLP  =  1.00D-07
 THRDIA  =  1.00D-10  THRDLS  =  1.00D-07  THRGPS  =  0.00D+00  THRKEX  =  0.00D+00  THRDIS  =  2.00D-01  THRVAR  =  1.00D-10
 THRLOC  =  1.00D-06  THRGAP  =  1.00D-06  THRLOCT = -1.00D+00  THRGAPT = -1.00D+00  THRORB  =  1.00D-06  THRMLTP =  0.00D+00
 THRCPQCI=  1.00D-10  KEXTA   =  0.00D+00  THRCOARS=  0.00D+00  SYMTOL  =  1.00D-06  GRADTOL =  1.00D-06  THROVL  =  1.00D-08
 THRORTH =  1.00D-08  GRID    =  1.00D-06  GRIDMAX =  1.00D-03  DTMAX   =  0.00D+00  THROCCDE=  1.00D-01  THROCCDE=  1.00D-01
 THRPRINT=  0.00D+00


 Variable memory set to   40000000 words,  buffer space 



 Permanent file  3  wfu.dat  assigned.  Implementation=df    Size= 14.09 MB


 PROGRAM * RESTART 


 Reading variables from file 3

 _FNUC           =      0.00000000
 _BASIS          =    6-31G
 _NELEC          =     17.00000000
 _PROGRAM        =    RHF-SCF
 _DMZ            =     -0.26736862
 _DMX_SCF        =      0.00000000
 _DMY_SCF        =      0.00000000
 _DMZ_SCF        =     -0.26736862
 _HOMO           =      2.20000000
 _EHOMO          =     -0.89639941
 _LUMO           =      6.10000000
 _ELUMO          =      0.00058055
 _ENERGY         =   -458.96421884
 _ENERGY_METHOD  =    RHF
 _ENERGY_BASIS   =    6-31G
 _ENUC           =     11.33333333
 _EPS1(1:9)      =   -105.30153381   -11.06896302    -8.55231403    -1.69064956    -1.21434706     0.00058055
                        0.09822125     0.21853022     1.04289803
 _EPS2(1:3)      =     -8.52618192    -0.89639941     0.27222737
 _EPS3(1:3)      =     -8.52618192    -0.89639941     0.27222737
 _IPROC_MPP      =      0.00000000
 _IPROC_MPPX     =      0.00000000
 _ORBITAL        =   2100.30000000
 _STATUS         =      1.00000000
 _LASTORB        =    RHF
 _OUTPUT         =    /scr/yuriaoto/job.032868/RHF.xml
 _PGROUP         =    C2v 
 _TIME           =    18:15:37
 R               =      1.50000000

 Geometry written to block  1 of record 700


 **********************************************************************************************************************************
 DATASETS  * FILE   NREC   LENGTH (MB)   RECORD NAMES
              3       5       14.77       500      610      700     1000     2100   
                                          VAR    BASINP    GEOM     BASIS     RHF  

 PROGRAMS   *        TOTAL   RESTART
 CPU TIMES  *         0.17      0.03
 REAL TIME  *         0.20 SEC
 DISK USED  *        26.84 MB
 **********************************************************************************************************************************


 Recomputing integrals since basis changed


 Using spherical harmonics

 Library entry H      S 6-31G                selected for orbital group  1
 Library entry CL     S 6-31G                selected for orbital group  2
 Library entry CL     P 6-31G                selected for orbital group  2


 PROGRAM * SEWARD (Integral evaluation for generally contracted gaussian basis sets)     Author: Roland Lindh, 1990

 Geometry written to block  1 of record 700

 Orientation using atomic masses  
 Molecule type: Linear
 User-specified symmetry elements: X,Y
 Symmetry elements: X,Y
 Rotational constants:     818.4131427    818.4131427      0.0000000 GHz  (calculated with average atomic masses)

 Point group  C2v 



 ATOMIC COORDINATES

 NR  ATOM    CHARGE       X              Y              Z

   1  H       1.00    0.000000000    0.000000000   -1.458533433
   2  CL     17.00    0.000000000    0.000000000    0.041466567

 Bond lengths in Bohr (Angstrom)

 1-2  1.500000000
     ( 0.793765816)


 BASIS DATA

   Nr Sym  Nuc  Type         Exponents   Contraction coefficients

    1.1 A1    1  1s          18.731137     0.033495
                              2.825394     0.234727
                              0.640122     0.813757
    2.1 A1    1  1s           0.161278     1.000000
    3.1 A1    2  1s       25180.100000     0.001833
                           3780.350000     0.014034
                            860.474000     0.069097
                            242.145000     0.237452
                             77.334900     0.483034
                             26.247000     0.339856
    4.1 A1    2  1s         491.765000    -0.002297
                            116.984000    -0.030714
                             37.415300    -0.112528
                             13.783400     0.045016
                              5.452150     0.589353
                              2.225880     0.465206
    5.1 A1    2  1s           3.186490    -0.251827
                              1.144270     0.061589
                              0.420377     1.060180
    6.1 A1    2  1s           0.142657     1.000000
    7.1 A1    2  2pz        491.765000     0.003989
                            116.984000     0.030318
                             37.415300     0.129880
                             13.783400     0.327951
                              5.452150     0.453527
                              2.225880     0.252154
    8.1 A1    2  2pz          3.186490    -0.014299
                              1.144270     0.323572
                              0.420377     0.743507
    9.1 A1    2  2pz          0.142657     1.000000
    1.2 B1    2  2px        491.765000     0.003989
                            116.984000     0.030318
                             37.415300     0.129880
                             13.783400     0.327951
                              5.452150     0.453527
                              2.225880     0.252154
    2.2 B1    2  2px          3.186490    -0.014299
                              1.144270     0.323572
                              0.420377     0.743507
    3.2 B1    2  2px          0.142657     1.000000
    1.3 B2    2  2py        491.765000     0.003989
                            116.984000     0.030318
                             37.415300     0.129880
                             13.783400     0.327951
                              5.452150     0.453527
                              2.225880     0.252154
    2.3 B2    2  2py          3.186490    -0.014299
                              1.144270     0.323572
                              0.420377     0.743507
    3.3 B2    2  2py          0.142657     1.000000

 NUCLEAR CHARGE:                   18
 NUMBER OF PRIMITIVE AOS:          50
 NUMBER OF SYMMETRY AOS:           50
 NUMBER OF CONTRACTIONS:           15   (    9A1  +    3B1  +    3B2  +    0A2  )
 NUMBER OF CORE ORBITALS:           5   (    3A1  +    1B1  +    1B2  +    0A2  )
 NUMBER OF VALENCE ORBITALS:        5   (    3A1  +    1B1  +    1B2  +    0A2  )


 NUCLEAR REPULSION ENERGY   11.33333333

 Eigenvalues of metric

         1 0.130E-01 0.193E+00 0.223E+00 0.485E+00 0.687E+00 0.973E+00 0.118E+01 0.187E+01
         2 0.323E+00 0.942E+00 0.174E+01
         3 0.323E+00 0.942E+00 0.174E+01


 Contracted 2-electron integrals neglected if value below      1.0D-11
 AO integral compression algorithm  1   Integral accuracy      1.0D-11

     0.262 MB (compressed) written to integral file (100.0%)


 NUMBER OF SORTED TWO-ELECTRON INTEGRALS:       2805.     BUFFER LENGTH:  32768
 NUMBER OF SEGMENTS:   1  SEGMENT LENGTH:       2805      RECORD LENGTH: 524288

 Memory used in sort:       0.56 MW

 SORT1 READ        5185. AND WROTE        2181. INTEGRALS IN      1 RECORDS. CPU TIME:     0.00 SEC, REAL TIME:     0.01 SEC
 SORT2 READ        2181. AND WROTE        2805. INTEGRALS IN      1 RECORDS. CPU TIME:     0.01 SEC, REAL TIME:     0.00 SEC

 FILE SIZES:   FILE 1:    30.2 MBYTE,  FILE 4:     4.2 MBYTE,   TOTAL:     34.4 MBYTE

 OPERATOR DM      FOR CENTER  0  COORDINATES:    0.000000    0.000000    0.000000


 **********************************************************************************************************************************
 DATASETS  * FILE   NREC   LENGTH (MB)   RECORD NAMES
              1      19       29.97       500      700      610      900      950      970     1000      129      960     1100   
                                          VAR     GEOM    BASINP   SYMINP    ZMAT    AOBASIS   BASIS     P2S    ABASIS      S 
                                         1400     1410     1200     1210     1080     1600     1650     1300     1700   
                                           T        V       H0       H01     AOSYM     SMH    MOLCAS    ERIS     OPER   

              3       5       14.77       500      610      700     1000     2100   
                                          VAR    BASINP    GEOM     BASIS     RHF  

 PROGRAMS   *        TOTAL       INT   RESTART
 CPU TIMES  *         0.39      0.22      0.03
 REAL TIME  *         0.60 SEC
 DISK USED  *        49.44 MB
 **********************************************************************************************************************************


 PROGRAM * CCSD (Unrestricted open-shell coupled cluster)     Authors: C. Hampel, H.-J. Werner, 1991, M. Deegan, P.J. Knowles, 1992


 Input parameters for THRESH:

 ENERGY   =    1.00D-10
 COEFF    =    1.00D-12
 PRINTCI  =    0.000000
 THRPRINT =    0.000000

 Convergence thresholds:  THRVAR = 1.00D-24  THRDEN = 1.00D-10

 Number of core orbitals:           5 (   3   1   1 )
 Number of closed-shell orbitals:   3 (   1   1   1 )
 Number of active  orbitals:        1 (   1   0   0 )
 Number of external orbitals:       6 (   4   1   1 )

 Number of N-1 electron functions:               7
 Number of N-2 electron functions:              21
 Number of singly external CSFs:                19
 Number of doubly external CSFs:               214
 Total number of CSFs:                         233

 Molecular orbitals read from record     2100.3  Type=RHF/CANONICAL (state 1.1)

 Integral transformation finished. Total CPU:   0.00 sec, npass=  1  Memory used:   0.07 MW

 Starting RMP2 calculation, locsing= 0

 ITER.      SQ.NORM     CORR.ENERGY   TOTAL ENERGY   ENERGY CHANGE        DEN1      VAR(S)    VAR(P)  DIIS     TIME
   1      1.00997117    -0.02749008  -458.99170893    -0.02749008    -0.00013325  0.57D-05  0.46D-04  1  1     0.01
   2      1.01009423    -0.02763501  -458.99185385    -0.00014493    -0.00000021  0.18D-07  0.97D-07  2  2     0.01
   3      1.01009692    -0.02763655  -458.99185539    -0.00000154    -0.00000000  0.39D-10  0.30D-09  3  3     0.02
   4      1.01009699    -0.02763657  -458.99185542    -0.00000003    -0.00000000  0.68D-13  0.35D-12  4  4     0.02
   5      1.01009699    -0.02763657  -458.99185542    -0.00000000    -0.00000000  0.19D-15  0.54D-15  5  5     0.02
   6      1.01009699    -0.02763657  -458.99185542     0.00000000    -0.00000000  0.80D-18  0.30D-17  6  6     0.02
   7      1.01009699    -0.02763657  -458.99185542     0.00000000    -0.00000000  0.16D-20  0.73D-20  6  1     0.02
   8      1.01009699    -0.02763657  -458.99185542     0.00000000    -0.00000000  0.45D-23  0.11D-22  6  2     0.02
   9      1.01009699    -0.02763657  -458.99185542     0.00000000    -0.00000000  0.11D-25  0.35D-25  6  3     0.02

 Norm of t1 vector:      0.03225897      S-energy:    -0.00210014      T1 diagnostic:  0.00038820
 Norm of t2 vector:      0.09516484      P-energy:    -0.02553643
                                         Alpha-Beta:  -0.02208376
                                         Alpha-Alpha: -0.00222790
                                         Beta-Beta:   -0.00122477

 Singles amplitudes (print threshold =  0.000E+00):

         I         SYM. A    A   T(IA) [Alpha-Alpha]

         1         1         1      0.00000000
         1         1         2      0.01215722
         1         1         3      0.00731575
         1         1         4     -0.00660141
         1         1         5      0.01335278
         2         1         1      0.00000000
         2         1         2     -0.00035780
         2         1         3     -0.00019931
         2         1         4      0.00016466
         2         1         5     -0.00021147
         3         2         1     -0.00676052
         4         3         1     -0.00676052

         I         SYM. A    A   T(IA) [Beta-Beta]

         1         1         1      0.00133421
         1         1         2     -0.01228997
         1         1         3     -0.00745798
         1         1         4      0.00662181
         1         1         5     -0.01323388
         2         1         1      0.00000000
         2         1         2      0.00000000
         2         1         3      0.00000000
         2         1         4      0.00000000
         2         1         5      0.00000000
         3         2         1      0.00701321
         4         3         1      0.00701321

 Doubles amplitudes (print threshold =  0.000E+00):

         I         J         SYM. A    SYM. B    A         B      T(IJ, AB) [Alpha-Alpha]

         2         1         1         1         1         1      0.00000000
         2         1         1         1         1         2      0.00000000
         2         1         1         1         1         3      0.00000000
         2         1         1         1         1         4      0.00000000
         2         1         1         1         1         5      0.00000000
         2         1         1         1         2         1      0.00000000
         2         1         1         1         2         2      0.00000000
         2         1         1         1         2         3      0.00170981
         2         1         1         1         2         4      0.00395794
         2         1         1         1         2         5     -0.00068211
         2         1         1         1         3         1      0.00000000
         2         1         1         1         3         2     -0.00170981
         2         1         1         1         3         3      0.00000000
         2         1         1         1         3         4     -0.00408436
         2         1         1         1         3         5     -0.00169890
         2         1         1         1         4         1      0.00000000
         2         1         1         1         4         2     -0.00395794
         2         1         1         1         4         3      0.00408436
         2         1         1         1         4         4      0.00000000
         2         1         1         1         4         5     -0.00474069
         2         1         1         1         5         1      0.00000000
         2         1         1         1         5         2      0.00068211
         2         1         1         1         5         3      0.00169890
         2         1         1         1         5         4      0.00474069
         2         1         1         1         5         5      0.00000000
         2         1         2         2         1         1      0.00000000
         2         1         3         3         1         1      0.00000000
         3         1         1         2         1         1      0.00000000
         3         1         1         2         2         1      0.00246535
         3         1         1         2         3         1     -0.00774833
         3         1         1         2         4         1      0.00273068
         3         1         1         2         5         1      0.00234491
         3         1         2         1         1         1      0.00000000
         3         1         2         1         1         2     -0.00246535
         3         1         2         1         1         3      0.00774833
         3         1         2         1         1         4     -0.00273068
         3         1         2         1         1         5     -0.00234491
         3         2         1         2         1         1      0.00000000
         3         2         1         2         2         1     -0.00079806
         3         2         1         2         3         1      0.00278635
         3         2         1         2         4         1      0.01197551
         3         2         1         2         5         1     -0.00316201
         3         2         2         1         1         1      0.00000000
         3         2         2         1         1         2      0.00079806
         3         2         2         1         1         3     -0.00278635
         3         2         2         1         1         4     -0.01197551
         3         2         2         1         1         5      0.00316201
         4         1         1         3         1         1      0.00000000
         4         1         1         3         2         1      0.00246535
         4         1         1         3         3         1     -0.00774833
         4         1         1         3         4         1      0.00273068
         4         1         1         3         5         1      0.00234491
         4         1         3         1         1         1      0.00000000
         4         1         3         1         1         2     -0.00246535
         4         1         3         1         1         3      0.00774833
         4         1         3         1         1         4     -0.00273068
         4         1         3         1         1         5     -0.00234491
         4         2         1         3         1         1      0.00000000
         4         2         1         3         2         1     -0.00079806
         4         2         1         3         3         1      0.00278635
         4         2         1         3         4         1      0.01197551
         4         2         1         3         5         1     -0.00316201
         4         2         3         1         1         1      0.00000000
         4         2         3         1         1         2      0.00079806
         4         2         3         1         1         3     -0.00278635
         4         2         3         1         1         4     -0.01197551
         4         2         3         1         1         5      0.00316201
         4         3         2         3         1         1      0.01647531
         4         3         3         2         1         1     -0.01647531

         I         J         SYM. A    SYM. B    A         B      T(IJ, AB) [Beta-Beta]

         3         1         1         2         1         1      0.00287934
         3         1         1         2         2         1      0.00253616
         3         1         1         2         3         1     -0.00809005
         3         1         1         2         4         1      0.00308252
         3         1         1         2         5         1      0.00237329
         3         1         2         1         1         1     -0.00287934
         3         1         2         1         1         2     -0.00253616
         3         1         2         1         1         3      0.00809005
         3         1         2         1         1         4     -0.00308252
         3         1         2         1         1         5     -0.00237329
         4         1         1         3         1         1      0.00287934
         4         1         1         3         2         1      0.00253616
         4         1         1         3         3         1     -0.00809005
         4         1         1         3         4         1      0.00308252
         4         1         1         3         5         1      0.00237329
         4         1         3         1         1         1     -0.00287934
         4         1         3         1         1         2     -0.00253616
         4         1         3         1         1         3      0.00809005
         4         1         3         1         1         4     -0.00308252
         4         1         3         1         1         5     -0.00237329
         4         3         2         3         1         1      0.01709085
         4         3         3         2         1         1     -0.01709085

         I         J         SYM. A    SYM. B    A         B      T(IJ, AB) [Alpha-Beta]

         1         1         1         1         1         1      0.00000000
         1         1         1         1         1         2      0.00000000
         1         1         1         1         1         3      0.00000000
         1         1         1         1         1         4      0.00000000
         1         1         1         1         1         5      0.00000000
         1         1         1         1         2         1      0.00992715
         1         1         1         1         2         2     -0.00835087
         1         1         1         1         2         3      0.00064158
         1         1         1         1         2         4      0.00011167
         1         1         1         1         2         5     -0.01044311
         1         1         1         1         3         1      0.01091210
         1         1         1         1         3         2      0.00054257
         1         1         1         1         3         3     -0.01154915
         1         1         1         1         3         4      0.00109670
         1         1         1         1         3         5     -0.00249978
         1         1         1         1         4         1      0.00381747
         1         1         1         1         4         2     -0.00009567
         1         1         1         1         4         3      0.00076313
         1         1         1         1         4         4     -0.00242368
         1         1         1         1         4         5     -0.00024156
         1         1         1         1         5         1      0.01410077
         1         1         1         1         5         2     -0.01042733
         1         1         1         1         5         3     -0.00237831
         1         1         1         1         5         4     -0.00000701
         1         1         1         1         5         5     -0.01778777
         1         1         2         2         1         1     -0.00472891
         1         1         3         3         1         1     -0.00472891
         2         1         1         1         1         1      0.00000000
         2         1         1         1         1         2      0.00000000
         2         1         1         1         1         3      0.00000000
         2         1         1         1         1         4      0.00000000
         2         1         1         1         1         5      0.00000000
         2         1         1         1         2         1     -0.01901650
         2         1         1         1         2         2      0.00360338
         2         1         1         1         2         3      0.00157730
         2         1         1         1         2         4     -0.00065123
         2         1         1         1         2         5      0.00557759
         2         1         1         1         3         1     -0.01155063
         2         1         1         1         3         2     -0.00005241
         2         1         1         1         3         3      0.00621290
         2         1         1         1         3         4      0.00073925
         2         1         1         1         3         5      0.00301272
         2         1         1         1         4         1      0.01021725
         2         1         1         1         4         2     -0.00412401
         2         1         1         1         4         3      0.00540032
         2         1         1         1         4         4     -0.00562140
         2         1         1         1         4         5     -0.00299603
         2         1         1         1         5         1     -0.02274680
         2         1         1         1         5         2      0.00619730
         2         1         1         1         5         3      0.00459022
         2         1         1         1         5         4      0.00136429
         2         1         1         1         5         5      0.01103079
         2         1         2         2         1         1     -0.00241645
         2         1         3         3         1         1     -0.00241645
         3         3         1         1         1         1      0.00000000
         3         3         1         1         1         2      0.00000000
         3         3         1         1         1         3      0.00000000
         3         3         1         1         1         4      0.00000000
         3         3         1         1         1         5      0.00000000
         3         3         1         1         2         1      0.01033866
         3         3         1         1         2         2     -0.00829108
         3         3         1         1         2         3     -0.00283495
         3         3         1         1         2         4      0.00105003
         3         3         1         1         2         5     -0.00520260
         3         3         1         1         3         1      0.00501370
         3         3         1         1         3         2     -0.00295092
         3         3         1         1         3         3     -0.00746724
         3         3         1         1         3         4      0.00439105
         3         3         1         1         3         5     -0.00012789
         3         3         1         1         4         1      0.00195200
         3         3         1         1         4         2      0.00052968
         3         3         1         1         4         3      0.00423213
         3         3         1         1         4         4     -0.00677927
         3         3         1         1         4         5     -0.00032199
         3         3         1         1         5         1      0.00269795
         3         3         1         1         5         2     -0.00522288
         3         3         1         1         5         3     -0.00013319
         3         3         1         1         5         4     -0.00016977
         3         3         1         1         5         5     -0.00577222
         3         3         2         2         1         1     -0.02688402
         3         3         3         3         1         1     -0.00336886
         4         4         1         1         1         1      0.00000000
         4         4         1         1         1         2      0.00000000
         4         4         1         1         1         3      0.00000000
         4         4         1         1         1         4      0.00000000
         4         4         1         1         1         5      0.00000000
         4         4         1         1         2         1      0.01033866
         4         4         1         1         2         2     -0.00829108
         4         4         1         1         2         3     -0.00283495
         4         4         1         1         2         4      0.00105003
         4         4         1         1         2         5     -0.00520260
         4         4         1         1         3         1      0.00501370
         4         4         1         1         3         2     -0.00295092
         4         4         1         1         3         3     -0.00746724
         4         4         1         1         3         4      0.00439105
         4         4         1         1         3         5     -0.00012789
         4         4         1         1         4         1      0.00195200
         4         4         1         1         4         2      0.00052968
         4         4         1         1         4         3      0.00423213
         4         4         1         1         4         4     -0.00677927
         4         4         1         1         4         5     -0.00032199
         4         4         1         1         5         1      0.00269795
         4         4         1         1         5         2     -0.00522288
         4         4         1         1         5         3     -0.00013319
         4         4         1         1         5         4     -0.00016977
         4         4         1         1         5         5     -0.00577222
         4         4         2         2         1         1     -0.00336886
         4         4         3         3         1         1     -0.02688402
         3         1         1         2         1         1      0.00000000
         3         1         1         2         2         1     -0.00410471
         3         1         1         2         3         1      0.00149936
         3         1         1         2         4         1     -0.00222985
         3         1         1         2         5         1     -0.00422254
         3         1         2         1         1         1      0.00397238
         3         1         2         1         1         2     -0.00656811
         3         1         2         1         1         3      0.00953494
         3         1         2         1         1         4     -0.00503200
         3         1         2         1         1         5     -0.00654708
         1         3         1         2         1         1      0.00000000
         1         3         1         2         2         1     -0.00651155
         1         3         1         2         3         1      0.00932798
         1         3         1         2         4         1     -0.00491260
         1         3         1         2         5         1     -0.00652955
         1         3         2         1         1         1      0.00650686
         1         3         2         1         1         2     -0.00397383
         1         3         2         1         1         3      0.00152819
         1         3         2         1         1         4     -0.00193058
         1         3         2         1         1         5     -0.00413407
         2         3         1         2         1         1      0.00000000
         2         3         1         2         2         1     -0.00099819
         2         3         1         2         3         1     -0.00233751
         2         3         1         2         4         1     -0.01622785
         2         3         1         2         5         1      0.00224631
         2         3         2         1         1         1      0.00882864
         2         3         2         1         1         2     -0.00186258
         2         3         2         1         1         3      0.00054778
         2         3         2         1         1         4     -0.00362256
         2         3         2         1         1         5     -0.00104050
         4         1         1         3         1         1      0.00000000
         4         1         1         3         2         1     -0.00410471
         4         1         1         3         3         1      0.00149936
         4         1         1         3         4         1     -0.00222985
         4         1         1         3         5         1     -0.00422254
         4         1         3         1         1         1      0.00397238
         4         1         3         1         1         2     -0.00656811
         4         1         3         1         1         3      0.00953494
         4         1         3         1         1         4     -0.00503200
         4         1         3         1         1         5     -0.00654708
         1         4         1         3         1         1      0.00000000
         1         4         1         3         2         1     -0.00651155
         1         4         1         3         3         1      0.00932798
         1         4         1         3         4         1     -0.00491260
         1         4         1         3         5         1     -0.00652955
         1         4         3         1         1         1      0.00650686
         1         4         3         1         1         2     -0.00397383
         1         4         3         1         1         3      0.00152819
         1         4         3         1         1         4     -0.00193058
         1         4         3         1         1         5     -0.00413407
         2         4         1         3         1         1      0.00000000
         2         4         1         3         2         1     -0.00099819
         2         4         1         3         3         1     -0.00233751
         2         4         1         3         4         1     -0.01622785
         2         4         1         3         5         1      0.00224631
         2         4         3         1         1         1      0.00882864
         2         4         3         1         1         2     -0.00186258
         2         4         3         1         1         3      0.00054778
         2         4         3         1         1         4     -0.00362256
         2         4         3         1         1         5     -0.00104050
         4         3         2         3         1         1     -0.00336886
         4         3         3         2         1         1     -0.02014630
         3         4         2         3         1         1     -0.02014630
         3         4         3         2         1         1     -0.00336886

 Spin contamination <S**2-Sz**2-Sz>     0.00011340
  Reference energy                   -458.964218844725
  RHF-RMP2 correlation energy          -0.027636572935
 !RHF-RMP2 energy                    -458.991855417660

 Starting UCCSD calculation

 ITER.      SQ.NORM     CORR.ENERGY   TOTAL ENERGY   ENERGY CHANGE        DEN1      VAR(S)    VAR(P)  DIIS     TIME
   1      1.01406794    -0.03237081  -458.99658965    -0.03237081    -0.00202031  0.17D-03  0.62D-03  1  1     0.03
   2      1.01725097    -0.03516532  -458.99938417    -0.00279451    -0.00007987  0.11D-04  0.32D-04  2  2     0.03
   3      1.01795984    -0.03547319  -458.99969203    -0.00030787    -0.00000607  0.90D-06  0.26D-05  3  3     0.04
   4      1.01812476    -0.03551654  -458.99973538    -0.00004335    -0.00000040  0.47D-07  0.18D-06  4  4     0.04
   5      1.01815449    -0.03552039  -458.99973924    -0.00000386    -0.00000003  0.76D-08  0.12D-07  5  5     0.05
   6      1.01816269    -0.03552296  -458.99974180    -0.00000257    -0.00000000  0.87D-09  0.82D-09  6  6     0.05
   7      1.01816335    -0.03552272  -458.99974157     0.00000024    -0.00000000  0.62D-10  0.65D-10  6  1     0.06
   8      1.01816356    -0.03552273  -458.99974158    -0.00000001    -0.00000000  0.97D-12  0.27D-11  6  3     0.06
   9      1.01816358    -0.03552275  -458.99974159    -0.00000001    -0.00000000  0.13D-12  0.36D-12  6  2     0.07
  10      1.01816356    -0.03552273  -458.99974158     0.00000002    -0.00000000  0.73D-14  0.29D-13  6  4     0.07
  11      1.01816356    -0.03552273  -458.99974157     0.00000000    -0.00000000  0.81D-15  0.30D-14  6  5     0.08
  12      1.01816356    -0.03552273  -458.99974157    -0.00000000    -0.00000000  0.63D-16  0.46D-15  6  6     0.08
  13      1.01816356    -0.03552273  -458.99974157     0.00000000    -0.00000000  0.92D-17  0.97D-16  6  1     0.09
  14      1.01816355    -0.03552273  -458.99974157     0.00000000    -0.00000000  0.22D-17  0.78D-17  6  3     0.09
  15      1.01816355    -0.03552273  -458.99974157     0.00000000    -0.00000000  0.77D-18  0.76D-18  6  2     0.09
  16      1.01816355    -0.03552273  -458.99974157    -0.00000000    -0.00000000  0.66D-19  0.39D-19  6  4     0.09
  17      1.01816355    -0.03552273  -458.99974157    -0.00000000    -0.00000000  0.47D-20  0.56D-20  6  5     0.10
  18      1.01816355    -0.03552273  -458.99974157    -0.00000000    -0.00000000  0.14D-21  0.61D-21  6  6     0.10
  19      1.01816355    -0.03552273  -458.99974157    -0.00000000    -0.00000000  0.30D-22  0.10D-21  6  1     0.10
  20      1.01816355    -0.03552273  -458.99974157     0.00000000    -0.00000000  0.50D-23  0.86D-23  6  3     0.11
  21      1.01816355    -0.03552273  -458.99974157     0.00000000    -0.00000000  0.48D-24  0.16D-23  6  2     0.11
  22      1.01816355    -0.03552273  -458.99974157     0.00000000    -0.00000000  0.23D-25  0.29D-24  6  4     0.11

 Norm of t1 vector:      0.04588102      S-energy:    -0.00269034      T1 diagnostic:  0.00506123
                                                                       D1 diagnostic:  0.00737222
 Norm of t2 vector:      0.12672208      P-energy:    -0.03283239
                                         Alpha-Beta:  -0.02906743
                                         Alpha-Alpha: -0.00240384
                                         Beta-Beta:   -0.00136112

 Singles amplitudes (print threshold =  0.000E+00):

         I         SYM. A    A   T(IA) [Alpha-Alpha]

         1         1         1      0.00000000
         1         1         2      0.01784805
         1         1         3      0.00830479
         1         1         4     -0.00803180
         1         1         5      0.01852627
         2         1         1      0.00000000
         2         1         2     -0.00135112
         2         1         3      0.00081741
         2         1         4      0.00294875
         2         1         5     -0.00439943
         3         2         1     -0.00232514
         4         3         1     -0.00232514

         I         SYM. A    A   T(IA) [Beta-Beta]

         1         1         1      0.00958290
         1         1         2     -0.01382469
         1         1         3     -0.01094433
         1         1         4      0.00815319
         1         1         5     -0.01471423
         2         1         1      0.00000000
         2         1         2      0.00000000
         2         1         3      0.00000000
         2         1         4      0.00000000
         2         1         5      0.00000000
         3         2         1      0.01706957
         4         3         1      0.01706957

 Doubles amplitudes (print threshold =  0.000E+00):

         I         J         SYM. A    SYM. B    A         B      T(IJ, AB) [Alpha-Alpha]

         2         1         1         1         1         1      0.00000000
         2         1         1         1         1         2      0.00000000
         2         1         1         1         1         3      0.00000000
         2         1         1         1         1         4      0.00000000
         2         1         1         1         1         5      0.00000000
         2         1         1         1         2         1      0.00000000
         2         1         1         1         2         2      0.00000000
         2         1         1         1         2         3      0.00185862
         2         1         1         1         2         4      0.00410708
         2         1         1         1         2         5     -0.00093532
         2         1         1         1         3         1      0.00000000
         2         1         1         1         3         2     -0.00185862
         2         1         1         1         3         3     -0.00000000
         2         1         1         1         3         4     -0.00458857
         2         1         1         1         3         5     -0.00204848
         2         1         1         1         4         1      0.00000000
         2         1         1         1         4         2     -0.00410708
         2         1         1         1         4         3      0.00458857
         2         1         1         1         4         4     -0.00000000
         2         1         1         1         4         5     -0.00470146
         2         1         1         1         5         1      0.00000000
         2         1         1         1         5         2      0.00093532
         2         1         1         1         5         3      0.00204848
         2         1         1         1         5         4      0.00470146
         2         1         1         1         5         5     -0.00000000
         2         1         2         2         1         1      0.00000000
         2         1         3         3         1         1      0.00000000
         3         1         1         2         1         1      0.00000000
         3         1         1         2         2         1      0.00245781
         3         1         1         2         3         1     -0.00851271
         3         1         1         2         4         1      0.00317859
         3         1         1         2         5         1      0.00160909
         3         1         2         1         1         1      0.00000000
         3         1         2         1         1         2     -0.00245781
         3         1         2         1         1         3      0.00851271
         3         1         2         1         1         4     -0.00317859
         3         1         2         1         1         5     -0.00160909
         3         2         1         2         1         1      0.00000000
         3         2         1         2         2         1     -0.00032344
         3         2         1         2         3         1      0.00319323
         3         2         1         2         4         1      0.01318522
         3         2         1         2         5         1     -0.00312449
         3         2         2         1         1         1      0.00000000
         3         2         2         1         1         2      0.00032344
         3         2         2         1         1         3     -0.00319323
         3         2         2         1         1         4     -0.01318522
         3         2         2         1         1         5      0.00312449
         4         1         1         3         1         1      0.00000000
         4         1         1         3         2         1      0.00245781
         4         1         1         3         3         1     -0.00851271
         4         1         1         3         4         1      0.00317859
         4         1         1         3         5         1      0.00160909
         4         1         3         1         1         1      0.00000000
         4         1         3         1         1         2     -0.00245781
         4         1         3         1         1         3      0.00851271
         4         1         3         1         1         4     -0.00317859
         4         1         3         1         1         5     -0.00160909
         4         2         1         3         1         1      0.00000000
         4         2         1         3         2         1     -0.00032344
         4         2         1         3         3         1      0.00319323
         4         2         1         3         4         1      0.01318522
         4         2         1         3         5         1     -0.00312449
         4         2         3         1         1         1      0.00000000
         4         2         3         1         1         2      0.00032344
         4         2         3         1         1         3     -0.00319323
         4         2         3         1         1         4     -0.01318522
         4         2         3         1         1         5      0.00312449
         4         3         2         3         1         1      0.01787448
         4         3         3         2         1         1     -0.01787448

         I         J         SYM. A    SYM. B    A         B      T(IJ, AB) [Beta-Beta]

         3         1         1         2         1         1      0.00599544
         3         1         1         2         2         1      0.00182103
         3         1         1         2         3         1     -0.00931941
         3         1         1         2         4         1      0.00340175
         3         1         1         2         5         1      0.00186764
         3         1         2         1         1         1     -0.00599544
         3         1         2         1         1         2     -0.00182103
         3         1         2         1         1         3      0.00931941
         3         1         2         1         1         4     -0.00340175
         3         1         2         1         1         5     -0.00186764
         4         1         1         3         1         1      0.00599544
         4         1         1         3         2         1      0.00182103
         4         1         1         3         3         1     -0.00931941
         4         1         1         3         4         1      0.00340175
         4         1         1         3         5         1      0.00186764
         4         1         3         1         1         1     -0.00599544
         4         1         3         1         1         2     -0.00182103
         4         1         3         1         1         3      0.00931941
         4         1         3         1         1         4     -0.00340175
         4         1         3         1         1         5     -0.00186764
         4         3         2         3         1         1      0.01888335
         4         3         3         2         1         1     -0.01888335

         I         J         SYM. A    SYM. B    A         B      T(IJ, AB) [Alpha-Beta]

         1         1         1         1         1         1      0.00000000
         1         1         1         1         1         2      0.00000000
         1         1         1         1         1         3      0.00000000
         1         1         1         1         1         4      0.00000000
         1         1         1         1         1         5      0.00000000
         1         1         1         1         2         1      0.01040549
         1         1         1         1         2         2     -0.01082775
         1         1         1         1         2         3      0.00074585
         1         1         1         1         2         4      0.00008689
         1         1         1         1         2         5     -0.01434188
         1         1         1         1         3         1      0.01264477
         1         1         1         1         3         2     -0.00006409
         1         1         1         1         3         3     -0.01304051
         1         1         1         1         3         4      0.00108684
         1         1         1         1         3         5     -0.00361534
         1         1         1         1         4         1      0.00570174
         1         1         1         1         4         2     -0.00014829
         1         1         1         1         4         3      0.00077905
         1         1         1         1         4         4     -0.00290351
         1         1         1         1         4         5     -0.00000741
         1         1         1         1         5         1      0.01885835
         1         1         1         1         5         2     -0.01398380
         1         1         1         1         5         3     -0.00329637
         1         1         1         1         5         4      0.00022332
         1         1         1         1         5         5     -0.02257707
         1         1         2         2         1         1     -0.00504730
         1         1         3         3         1         1     -0.00504730
         2         1         1         1         1         1      0.00000000
         2         1         1         1         1         2      0.00000000
         2         1         1         1         1         3      0.00000000
         2         1         1         1         1         4      0.00000000
         2         1         1         1         1         5      0.00000000
         2         1         1         1         2         1     -0.03124254
         2         1         1         1         2         2      0.00506846
         2         1         1         1         2         3      0.00269563
         2         1         1         1         2         4     -0.00023777
         2         1         1         1         2         5      0.00696701
         2         1         1         1         3         1     -0.01906441
         2         1         1         1         3         2      0.00083530
         2         1         1         1         3         3      0.00754846
         2         1         1         1         3         4      0.00155938
         2         1         1         1         3         5      0.00371387
         2         1         1         1         4         1      0.01609830
         2         1         1         1         4         2     -0.00438010
         2         1         1         1         4         3      0.00611681
         2         1         1         1         4         4     -0.00725038
         2         1         1         1         4         5     -0.00324607
         2         1         1         1         5         1     -0.03305315
         2         1         1         1         5         2      0.00788073
         2         1         1         1         5         3      0.00571272
         2         1         1         1         5         4      0.00142515
         2         1         1         1         5         5      0.01270294
         2         1         2         2         1         1     -0.00320008
         2         1         3         3         1         1     -0.00320008
         3         3         1         1         1         1      0.00000000
         3         3         1         1         1         2      0.00000000
         3         3         1         1         1         3      0.00000000
         3         3         1         1         1         4      0.00000000
         3         3         1         1         1         5      0.00000000
         3         3         1         1         2         1      0.02353907
         3         3         1         1         2         2     -0.01067318
         3         3         1         1         2         3     -0.00341709
         3         3         1         1         2         4      0.00008884
         3         3         1         1         2         5     -0.00626447
         3         3         1         1         3         1      0.00803844
         3         3         1         1         3         2     -0.00349113
         3         3         1         1         3         3     -0.00894336
         3         3         1         1         3         4      0.00569302
         3         3         1         1         3         5      0.00022746
         3         3         1         1         4         1      0.00427690
         3         3         1         1         4         2      0.00014090
         3         3         1         1         4         3      0.00604549
         3         3         1         1         4         4     -0.00874597
         3         3         1         1         4         5     -0.00073746
         3         3         1         1         5         1      0.00426871
         3         3         1         1         5         2     -0.00636713
         3         3         1         1         5         3      0.00026795
         3         3         1         1         5         4     -0.00036740
         3         3         1         1         5         5     -0.00563170
         3         3         2         2         1         1     -0.03355893
         3         3         3         3         1         1     -0.00322050
         4         4         1         1         1         1      0.00000000
         4         4         1         1         1         2      0.00000000
         4         4         1         1         1         3      0.00000000
         4         4         1         1         1         4      0.00000000
         4         4         1         1         1         5      0.00000000
         4         4         1         1         2         1      0.02353907
         4         4         1         1         2         2     -0.01067318
         4         4         1         1         2         3     -0.00341709
         4         4         1         1         2         4      0.00008884
         4         4         1         1         2         5     -0.00626447
         4         4         1         1         3         1      0.00803844
         4         4         1         1         3         2     -0.00349113
         4         4         1         1         3         3     -0.00894336
         4         4         1         1         3         4      0.00569302
         4         4         1         1         3         5      0.00022746
         4         4         1         1         4         1      0.00427690
         4         4         1         1         4         2      0.00014090
         4         4         1         1         4         3      0.00604549
         4         4         1         1         4         4     -0.00874597
         4         4         1         1         4         5     -0.00073746
         4         4         1         1         5         1      0.00426871
         4         4         1         1         5         2     -0.00636713
         4         4         1         1         5         3      0.00026795
         4         4         1         1         5         4     -0.00036740
         4         4         1         1         5         5     -0.00563170
         4         4         2         2         1         1     -0.00322050
         4         4         3         3         1         1     -0.03355893
         3         1         1         2         1         1      0.00000000
         3         1         1         2         2         1     -0.00620254
         3         1         1         2         3         1      0.00243941
         3         1         1         2         4         1     -0.00315527
         3         1         1         2         5         1     -0.00662562
         3         1         2         1         1         1      0.00492964
         3         1         2         1         1         2     -0.00763695
         3         1         2         1         1         3      0.01161329
         3         1         2         1         1         4     -0.00650954
         3         1         2         1         1         5     -0.00802549
         1         3         1         2         1         1      0.00000000
         1         3         1         2         2         1     -0.00877416
         1         3         1         2         3         1      0.01069290
         1         3         1         2         4         1     -0.00615560
         1         3         1         2         5         1     -0.00820397
         1         3         2         1         1         1      0.01078515
         1         3         2         1         1         2     -0.00523606
         1         3         2         1         1         3      0.00246647
         1         3         2         1         1         4     -0.00327658
         1         3         2         1         1         5     -0.00540235
         2         3         1         2         1         1      0.00000000
         2         3         1         2         2         1     -0.00129085
         2         3         1         2         3         1     -0.00207164
         2         3         1         2         4         1     -0.01993592
         2         3         1         2         5         1      0.00292524
         2         3         2         1         1         1      0.01899016
         2         3         2         1         1         2     -0.00166252
         2         3         2         1         1         3      0.00111767
         2         3         2         1         1         4     -0.00675456
         2         3         2         1         1         5     -0.00026334
         4         1         1         3         1         1      0.00000000
         4         1         1         3         2         1     -0.00620254
         4         1         1         3         3         1      0.00243941
         4         1         1         3         4         1     -0.00315527
         4         1         1         3         5         1     -0.00662562
         4         1         3         1         1         1      0.00492964
         4         1         3         1         1         2     -0.00763695
         4         1         3         1         1         3      0.01161329
         4         1         3         1         1         4     -0.00650954
         4         1         3         1         1         5     -0.00802549
         1         4         1         3         1         1      0.00000000
         1         4         1         3         2         1     -0.00877416
         1         4         1         3         3         1      0.01069290
         1         4         1         3         4         1     -0.00615560
         1         4         1         3         5         1     -0.00820397
         1         4         3         1         1         1      0.01078515
         1         4         3         1         1         2     -0.00523606
         1         4         3         1         1         3      0.00246647
         1         4         3         1         1         4     -0.00327658
         1         4         3         1         1         5     -0.00540235
         2         4         1         3         1         1      0.00000000
         2         4         1         3         2         1     -0.00129085
         2         4         1         3         3         1     -0.00207164
         2         4         1         3         4         1     -0.01993592
         2         4         1         3         5         1      0.00292524
         2         4         3         1         1         1      0.01899016
         2         4         3         1         1         2     -0.00166252
         2         4         3         1         1         3      0.00111767
         2         4         3         1         1         4     -0.00675456
         2         4         3         1         1         5     -0.00026334
         4         3         2         3         1         1     -0.00608946
         4         3         3         2         1         1     -0.02424898
         3         4         2         3         1         1     -0.02424898
         3         4         3         2         1         1     -0.00608946

 Spin contamination <S**2-Sz**2-Sz>     0.00000911


 RESULTS
 =======

  Reference energy                   -458.964218844725
  UCCSD singles energy                 -0.002690341717
  UCCSD pair energy                    -0.032832387756
  UCCSD correlation energy             -0.035522729473

 !RHF-UCCSD energy                   -458.999741574199

 Program statistics:

 Available memory in ccsd:                39999032
 Min. memory needed in ccsd:                  2844
 Max. memory used in ccsd:                    3294
 Max. memory used in cckext:                 37662 (22 integral passes)
 Max. memory used in cckint:                 68215 ( 1 integral passes)



 **********************************************************************************************************************************
 DATASETS  * FILE   NREC   LENGTH (MB)   RECORD NAMES
              1      19       29.97       500      700      610      900      950      970     1000      129      960     1100   
                                          VAR     GEOM    BASINP   SYMINP    ZMAT    AOBASIS   BASIS     P2S    ABASIS      S 
                                         1400     1410     1200     1210     1080     1600     1650     1300     1700   
                                           T        V       H0       H01     AOSYM     SMH    MOLCAS    ERIS     OPER   

              3       5       14.77       500      610      700     1000     2100   
                                          VAR    BASINP    GEOM     BASIS     RHF  

 PROGRAMS   *        TOTAL      CCSD       INT   RESTART
 CPU TIMES  *         0.58      0.19      0.22      0.03
 REAL TIME  *         0.82 SEC
 DISK USED  *        49.44 MB
 **********************************************************************************************************************************
 Molecular orbitals read from record     2100.3  Type=RHF/CANONICAL (state 1.1)
 Occupation numbers read from record     2100.3  Type=RHF/RHF (state 1.1)
 Orbital energies read from record       2100.3  Type=RHF/CANONICAL (state 1.1)
 Redundancy group numbers read from rec  2100.3  Type=RHF/RHF (state 1.1)

 CCSD/6-31G energy=   -458.999741574199

            CCSD
   -458.99974157
 **********************************************************************************************************************************
 Molpro calculation terminated
