
 Primary working directories    : /scr/yuriaoto/job.032874/molpro.EAHAvTk4qA
 Secondary working directories  : /scr/yuriaoto/job.032874/molpro.EAHAvTk4qA
 Wavefunction directory         : /scr/yuriaoto/job.032874/
 Main file repository           : /scr/yuriaoto/job.032874/molpro.EAHAvTk4qA/

 id        : yuriaoto

 Nodes             nprocs
 t-rex.ufabc.int.br    1

 Using customized tuning parameters: mindgm=8; mindgv=16; mindgc=1; mindgr=1; noblas=0; minvec=7
 default implementation of scratch files=df  


 Variables initialized (933), CPU time= 0.01 sec
 ***,
 memory,400,m
 gprint,orbital,basis,civector
 gthresh,thrprint=0,printci=0.0
 file,3,wfu.dat,old
 
 {fci
 wf,17,1,1
 }
 
 Commands  initialized (760), CPU time= 0.01 sec, 617 directives.
 Default parameters read. Elapsed time= 0.05 sec

 Checking input...
 Passed
1


                                         ***  PROGRAM SYSTEM MOLPRO  ***
                                       Copyright, TTI GmbH Stuttgart, 2015
                                    Version 2019.2 linked Abr  7 2019 15:10:35


 **********************************************************************************************************************************
 LABEL *                                                                                 
  64 bit serial version                                                                  DATE: 15-Feb-21          TIME: 21:44:03  
 **********************************************************************************************************************************

 SHA1:             3a8a58c585c929645742fb5a1b7541a4ad1da699
 **********************************************************************************************************************************


 THRESHOLDS:

 ZERO    =  1.00D-12  ONEINT  =  1.00D-12  TWOINT  =  1.00D-11  PREFAC  =  1.00D-14  XXXXXX  =  1.00D-09  EORDER  =  1.00D-04
 ENERGY  =  0.00D+00  ETEST   =  0.00D+00  EDENS   =  0.00D+00  THRDEDEF=  1.00D-06  GRADIENT=  1.00D-02  STEP    =  1.00D-03
 ORBITAL =  1.00D-05  CIVEC   =  1.00D-05  COEFF   =  1.00D-04  PRINTCI =  0.00D+00  PUNCHCI =  9.90D+01  OPTGRAD =  3.00D-04
 OPTENERG=  1.00D-06  OPTSTEP =  3.00D-04  THRGRAD =  1.00D-10  COMPRESS=  1.00D-11  VARMIN  =  1.00D-07  VARMAX  =  1.00D-03
 THRDOUB =  0.00D+00  THRDIV  =  1.00D-05  THRRED  =  1.00D-07  THRPSP  =  1.00D+00  THRDC   =  1.00D-10  THRCS   =  1.00D-10
 THRNRM  =  1.00D-08  THREQ   =  0.00D+00  THRDE   =  1.00D+00  THRREF  =  1.00D-05  SPARFAC =  1.00D+00  THRDLP  =  1.00D-07
 THRDIA  =  1.00D-10  THRDLS  =  1.00D-07  THRGPS  =  0.00D+00  THRKEX  =  0.00D+00  THRDIS  =  2.00D-01  THRVAR  =  1.00D-10
 THRLOC  =  1.00D-06  THRGAP  =  1.00D-06  THRLOCT = -1.00D+00  THRGAPT = -1.00D+00  THRORB  =  1.00D-06  THRMLTP =  0.00D+00
 THRCPQCI=  1.00D-10  KEXTA   =  0.00D+00  THRCOARS=  0.00D+00  SYMTOL  =  1.00D-06  GRADTOL =  1.00D-06  THROVL  =  1.00D-08
 THRORTH =  1.00D-08  GRID    =  1.00D-06  GRIDMAX =  1.00D-03  DTMAX   =  0.00D+00  THROCCDE=  1.00D-01  THROCCDE=  1.00D-01
 THRPRINT=  0.00D+00


 Variable memory set to  400000000 words,  buffer space 



 Permanent file  3  wfu.dat  assigned.  Implementation=df    Size= 14.09 MB


 PROGRAM * RESTART 


 Reading variables from file 3

 _FNUC           =      0.00000000
 _BASIS          =    6-31G
 _NELEC          =     17.00000000
 _PROGRAM        =    RHF-SCF
 _DMZ            =     -0.26736862
 _DMX_SCF        =      0.00000000
 _DMY_SCF        =      0.00000000
 _DMZ_SCF        =     -0.26736862
 _HOMO           =      2.20000000
 _EHOMO          =     -0.89639941
 _LUMO           =      6.10000000
 _ELUMO          =      0.00058055
 _ENERGY         =   -458.96421884
 _ENERGY_METHOD  =    RHF
 _ENERGY_BASIS   =    6-31G
 _ENUC           =     11.33333333
 _EPS1(1:9)      =   -105.30153381   -11.06896302    -8.55231403    -1.69064956    -1.21434706     0.00058055
                        0.09822125     0.21853022     1.04289803
 _EPS2(1:3)      =     -8.52618192    -0.89639941     0.27222737
 _EPS3(1:3)      =     -8.52618192    -0.89639941     0.27222737
 _IPROC_MPP      =      0.00000000
 _IPROC_MPPX     =      0.00000000
 _ORBITAL        =   2100.30000000
 _STATUS         =      1.00000000
 _DATE           =    14-Feb-21
 _LASTORB        =    RHF
 _OUTPUT         =    /scr/yuriaoto/job.032868/RHF.xml
 _PGROUP         =    C2v 
 _TIME           =    18:15:37
 R               =      1.50000000

 Geometry written to block  1 of record 700


 **********************************************************************************************************************************
 DATASETS  * FILE   NREC   LENGTH (MB)   RECORD NAMES
              3       5       14.77       500      610      700     1000     2100   
                                          VAR    BASINP    GEOM     BASIS     RHF  

 PROGRAMS   *        TOTAL   RESTART
 CPU TIMES  *         0.10      0.01
 REAL TIME  *         0.15 SEC
 DISK USED  *        26.84 MB
 **********************************************************************************************************************************


 Recomputing integrals since basis changed


 Using spherical harmonics

 Library entry H      S 6-31G                selected for orbital group  1
 Library entry CL     S 6-31G                selected for orbital group  2
 Library entry CL     P 6-31G                selected for orbital group  2


 PROGRAM * SEWARD (Integral evaluation for generally contracted gaussian basis sets)     Author: Roland Lindh, 1990

 Geometry written to block  1 of record 700

 Orientation using atomic masses  
 Molecule type: Linear
 User-specified symmetry elements: X,Y
 Symmetry elements: X,Y
 Rotational constants:     818.4131427    818.4131427      0.0000000 GHz  (calculated with average atomic masses)

 Point group  C2v 



 ATOMIC COORDINATES

 NR  ATOM    CHARGE       X              Y              Z

   1  H       1.00    0.000000000    0.000000000   -1.458533433
   2  CL     17.00    0.000000000    0.000000000    0.041466567

 Bond lengths in Bohr (Angstrom)

 1-2  1.500000000
     ( 0.793765816)


 BASIS DATA

   Nr Sym  Nuc  Type         Exponents   Contraction coefficients

    1.1 A1    1  1s          18.731137     0.033495
                              2.825394     0.234727
                              0.640122     0.813757
    2.1 A1    1  1s           0.161278     1.000000
    3.1 A1    2  1s       25180.100000     0.001833
                           3780.350000     0.014034
                            860.474000     0.069097
                            242.145000     0.237452
                             77.334900     0.483034
                             26.247000     0.339856
    4.1 A1    2  1s         491.765000    -0.002297
                            116.984000    -0.030714
                             37.415300    -0.112528
                             13.783400     0.045016
                              5.452150     0.589353
                              2.225880     0.465206
    5.1 A1    2  1s           3.186490    -0.251827
                              1.144270     0.061589
                              0.420377     1.060180
    6.1 A1    2  1s           0.142657     1.000000
    7.1 A1    2  2pz        491.765000     0.003989
                            116.984000     0.030318
                             37.415300     0.129880
                             13.783400     0.327951
                              5.452150     0.453527
                              2.225880     0.252154
    8.1 A1    2  2pz          3.186490    -0.014299
                              1.144270     0.323572
                              0.420377     0.743507
    9.1 A1    2  2pz          0.142657     1.000000
    1.2 B1    2  2px        491.765000     0.003989
                            116.984000     0.030318
                             37.415300     0.129880
                             13.783400     0.327951
                              5.452150     0.453527
                              2.225880     0.252154
    2.2 B1    2  2px          3.186490    -0.014299
                              1.144270     0.323572
                              0.420377     0.743507
    3.2 B1    2  2px          0.142657     1.000000
    1.3 B2    2  2py        491.765000     0.003989
                            116.984000     0.030318
                             37.415300     0.129880
                             13.783400     0.327951
                              5.452150     0.453527
                              2.225880     0.252154
    2.3 B2    2  2py          3.186490    -0.014299
                              1.144270     0.323572
                              0.420377     0.743507
    3.3 B2    2  2py          0.142657     1.000000

 NUCLEAR CHARGE:                   18
 NUMBER OF PRIMITIVE AOS:          50
 NUMBER OF SYMMETRY AOS:           50
 NUMBER OF CONTRACTIONS:           15   (    9A1  +    3B1  +    3B2  +    0A2  )
 NUMBER OF CORE ORBITALS:           5   (    3A1  +    1B1  +    1B2  +    0A2  )
 NUMBER OF VALENCE ORBITALS:        5   (    3A1  +    1B1  +    1B2  +    0A2  )


 NUCLEAR REPULSION ENERGY   11.33333333

 Eigenvalues of metric

         1 0.130E-01 0.193E+00 0.223E+00 0.485E+00 0.687E+00 0.973E+00 0.118E+01 0.187E+01
         2 0.323E+00 0.942E+00 0.174E+01
         3 0.323E+00 0.942E+00 0.174E+01


 Contracted 2-electron integrals neglected if value below      1.0D-11
 AO integral compression algorithm  1   Integral accuracy      1.0D-11

     0.262 MB (compressed) written to integral file (100.0%)


 NUMBER OF SORTED TWO-ELECTRON INTEGRALS:       2805.     BUFFER LENGTH:  32768
 NUMBER OF SEGMENTS:   1  SEGMENT LENGTH:       2805      RECORD LENGTH: 524288

 Memory used in sort:       0.56 MW

 SORT1 READ        5185. AND WROTE        2181. INTEGRALS IN      1 RECORDS. CPU TIME:     0.00 SEC, REAL TIME:     0.00 SEC
 SORT2 READ        2181. AND WROTE        2805. INTEGRALS IN      1 RECORDS. CPU TIME:     0.01 SEC, REAL TIME:     0.00 SEC

 FILE SIZES:   FILE 1:    30.2 MBYTE,  FILE 4:     4.2 MBYTE,   TOTAL:     34.4 MBYTE

 OPERATOR DM      FOR CENTER  0  COORDINATES:    0.000000    0.000000    0.000000


 **********************************************************************************************************************************
 DATASETS  * FILE   NREC   LENGTH (MB)   RECORD NAMES
              1      19       29.97       500      700      610      900      950      970     1000      129      960     1100   
                                          VAR     GEOM    BASINP   SYMINP    ZMAT    AOBASIS   BASIS     P2S    ABASIS      S 
                                         1400     1410     1200     1210     1080     1600     1650     1300     1700   
                                           T        V       H0       H01     AOSYM     SMH    MOLCAS    ERIS     OPER   

              3       5       14.77       500      610      700     1000     2100   
                                          VAR    BASINP    GEOM     BASIS     RHF  

 PROGRAMS   *        TOTAL       INT   RESTART
 CPU TIMES  *         0.34      0.24      0.01
 REAL TIME  *         0.88 SEC
 DISK USED  *        49.44 MB
 **********************************************************************************************************************************


 PROGRAM * FCI (Full CI)     Author: P.J. Knowles, 1984


 Molecular orbitals read from record     2100.3  Type=RHF/CANONICAL (state 1.1)

 Frozen orbitals:              5 (  3  1  1  0  0  0  0  0)
 Active orbitals:             10 (  6  2  2  0  0  0  0  0)
 Active electrons:             7
 Spin quantum number:          0.5
 Orbital pairs:                    27      12      12       4       0       0       0       0
 Strings:                          46      52      52      60       0       0       0       0
                                   32      32      32      24       0       0       0       0
 Determinants:                           6240            6304            6304            6352
                                            0               0               0               0

 Load integrals                1.7 sec
 Transform integrals           1.7 sec
 Storage for integrals:           1243
 Remaining memory:           399997532

 Core energy:            -440.04312915
 Run Hamiltonian processor DAVIDSON
 Symmetry:                   1
 Trial vector:                  0.00
 Result vector:                 0.00
 Maximum iterations:           90
 Convergence threshold:         0.0000100
 RHS vector:                    0.00
 Hamiltonian shift:             0.0000000
 Output threshold:              0.0000000
 Options:                        0
 Number of roots:             1

 Hamiltonian diagonaliser entered at time      1.66

 Initial configuration generated:
    4801      1.0000000   -458.9642188

 It  Tr    CPU  Convergence   Energy       Pop     dE(next)

  1   1    1.7  1.00000000  -458.96421884
                                           0.03 -0.03724288 -0.03719977
  2   1    1.7  0.12911106  -458.99872127
                                           0.10 -0.00155829 -0.00146874
  3   1    1.7  0.02325166  -458.99992132
                                           0.19 -0.00014140 -0.00012864
  4   1    1.7  0.00687287  -459.00004838
                                           0.23 -0.00001537 -0.00001362
  5   1    1.7  0.00197644  -459.00006208
                                           0.26 -0.00000199 -0.00000171
  6   1    1.7  0.00064967  -459.00006380
                                           0.29 -0.00000031 -0.00000027
  7   1    1.7  0.00024399  -459.00006407
                                           0.29 -0.00000005 -0.00000004
  8   1    1.7  0.00009972  -459.00006411
                                           0.28 -0.00000001 -0.00000001
  9   1    1.7  0.00003837  -459.00006412
                                           0.28 -0.00000000 -0.00000000
 10   1    1.7  0.00001528  -459.00006412
                                           0.29 -0.00000000 -0.00000000
 11   1    1.7  0.00000616  -459.00006412


RESULTS FOR STATE  1.1
=====================

 Correlation energy                    -0.035845276403
 !FCI STATE  1.1 Energy              -459.000064121128
 CI Vector (threshold=  0.00    )
       0.000015255089  1  2  3  4  5  6  7  8  9  1  2  3  4  5  6  7  8
      -0.000343993168  1  2  3  4  5  6  7  8  9  1  2  3  4  5  6  7  9
       0.000249970508  1  2  3  4  5  6  7  8  9  1  2  3  4  5  6  7 10
       0.000116822284  1  2  3  4  5  6  7  8  9  1  2  3  4  5  6  7 11
       0.000147677398  1  2  3  4  5  6  7  8  9  1  2  3  4  5  6  8  9
      -0.000111288245  1  2  3  4  5  6  7  8  9  1  2  3  4  5  6  8 10
      -0.000044152825  1  2  3  4  5  6  7  8  9  1  2  3  4  5  6  8 11
      -0.000049716217  1  2  3  4  5  6  7  8  9  1  2  3  4  5  6  9 10
      -0.000106790776  1  2  3  4  5  6  7  8  9  1  2  3  4  5  6  9 11
       0.000067861824  1  2  3  4  5  6  7  8  9  1  2  3  4  5  6 10 11
       0.000075640297  1  2  3  4  5  6  7  8  9  1  2  3  4  5  6 12 13
       0.000075640297  1  2  3  4  5  6  7  8  9  1  2  3  4  5  6 14 15
      -0.000002122675  1  2  3  4  5  6  7  8  9  1  2  3  4  5  7  8  9
       0.000003791212  1  2  3  4  5  6  7  8  9  1  2  3  4  5  7  8 10
       0.000001839498  1  2  3  4  5  6  7  8  9  1  2  3  4  5  7  8 11
      -0.000000502797  1  2  3  4  5  6  7  8  9  1  2  3  4  5  7  9 10
      -0.000000717771  1  2  3  4  5  6  7  8  9  1  2  3  4  5  7  9 11
      -0.000001255146  1  2  3  4  5  6  7  8  9  1  2  3  4  5  7 10 11
       0.000110986881  1  2  3  4  5  6  7  8  9  1  2  3  4  5  7 12 13
       0.000110986881  1  2  3  4  5  6  7  8  9  1  2  3  4  5  7 14 15
       0.000000998887  1  2  3  4  5  6  7  8  9  1  2  3  4  5  8  9 10
      -0.000002128305  1  2  3  4  5  6  7  8  9  1  2  3  4  5  8  9 11
       0.000001969958  1  2  3  4  5  6  7  8  9  1  2  3  4  5  8 10 11
      -0.000052083137  1  2  3  4  5  6  7  8  9  1  2  3  4  5  8 12 13
      -0.000052083137  1  2  3  4  5  6  7  8  9  1  2  3  4  5  8 14 15
      -0.000000793479  1  2  3  4  5  6  7  8  9  1  2  3  4  5  9 10 11
      -0.000058518725  1  2  3  4  5  6  7  8  9  1  2  3  4  5  9 12 13
      -0.000058518725  1  2  3  4  5  6  7  8  9  1  2  3  4  5  9 14 15
       0.000027907451  1  2  3  4  5  6  7  8  9  1  2  3  4  5 10 12 13
       0.000027907451  1  2  3  4  5  6  7  8  9  1  2  3  4  5 10 14 15
      -0.000025204463  1  2  3  4  5  6  7  8  9  1  2  3  4  5 11 12 13
      -0.000025204463  1  2  3  4  5  6  7  8  9  1  2  3  4  5 11 14 15
       0.000117704084  1  2  3  4  5  6  7  8 10  1  2  3  4  5  6  7  8
       0.000290311668  1  2  3  4  5  6  7  8 10  1  2  3  4  5  6  7  9
      -0.000397217245  1  2  3  4  5  6  7  8 10  1  2  3  4  5  6  7 10
       0.000039522663  1  2  3  4  5  6  7  8 10  1  2  3  4  5  6  7 11
      -0.000114084156  1  2  3  4  5  6  7  8 10  1  2  3  4  5  6  8  9
       0.000181089698  1  2  3  4  5  6  7  8 10  1  2  3  4  5  6  8 10
       0.000011211027  1  2  3  4  5  6  7  8 10  1  2  3  4  5  6  8 11
       0.000065030185  1  2  3  4  5  6  7  8 10  1  2  3  4  5  6  9 10
       0.000078382366  1  2  3  4  5  6  7  8 10  1  2  3  4  5  6  9 11
      -0.000114650352  1  2  3  4  5  6  7  8 10  1  2  3  4  5  6 10 11
       0.000004863600  1  2  3  4  5  6  7  8 10  1  2  3  4  5  6 12 13
       0.000004863600  1  2  3  4  5  6  7  8 10  1  2  3  4  5  6 14 15
       0.000007189510  1  2  3  4  5  6  7  8 10  1  2  3  4  5  7  8  9
      -0.000011706791  1  2  3  4  5  6  7  8 10  1  2  3  4  5  7  8 10
      -0.000001965730  1  2  3  4  5  6  7  8 10  1  2  3  4  5  7  8 11
       0.000006639505  1  2  3  4  5  6  7  8 10  1  2  3  4  5  7  9 10
      -0.000001822491  1  2  3  4  5  6  7  8 10  1  2  3  4  5  7  9 11
       0.000007821364  1  2  3  4  5  6  7  8 10  1  2  3  4  5  7 10 11
      -0.000045995304  1  2  3  4  5  6  7  8 10  1  2  3  4  5  7 12 13
      -0.000045995304  1  2  3  4  5  6  7  8 10  1  2  3  4  5  7 14 15
      -0.000004026435  1  2  3  4  5  6  7  8 10  1  2  3  4  5  8  9 10
       0.000002129504  1  2  3  4  5  6  7  8 10  1  2  3  4  5  8  9 11
      -0.000003615278  1  2  3  4  5  6  7  8 10  1  2  3  4  5  8 10 11
       0.000037752063  1  2  3  4  5  6  7  8 10  1  2  3  4  5  8 12 13
       0.000037752063  1  2  3  4  5  6  7  8 10  1  2  3  4  5  8 14 15
      -0.000000204171  1  2  3  4  5  6  7  8 10  1  2  3  4  5  9 10 11
       0.000043533101  1  2  3  4  5  6  7  8 10  1  2  3  4  5  9 12 13
       0.000043533101  1  2  3  4  5  6  7  8 10  1  2  3  4  5  9 14 15
      -0.000047574131  1  2  3  4  5  6  7  8 10  1  2  3  4  5 10 12 13
      -0.000047574131  1  2  3  4  5  6  7  8 10  1  2  3  4  5 10 14 15
       0.000022784308  1  2  3  4  5  6  7  8 10  1  2  3  4  5 11 12 13
       0.000022784308  1  2  3  4  5  6  7  8 10  1  2  3  4  5 11 14 15
      -0.000200227064  1  2  3  4  5  6  7  8 11  1  2  3  4  5  6  7  8
       0.000042004180  1  2  3  4  5  6  7  8 11  1  2  3  4  5  6  7  9
      -0.000025632100  1  2  3  4  5  6  7  8 11  1  2  3  4  5  6  7 10
      -0.000250709733  1  2  3  4  5  6  7  8 11  1  2  3  4  5  6  7 11
      -0.000042748384  1  2  3  4  5  6  7  8 11  1  2  3  4  5  6  8  9
       0.000010297761  1  2  3  4  5  6  7  8 11  1  2  3  4  5  6  8 10
       0.000059755599  1  2  3  4  5  6  7  8 11  1  2  3  4  5  6  8 11
       0.000007052338  1  2  3  4  5  6  7  8 11  1  2  3  4  5  6  9 10
       0.000044810724  1  2  3  4  5  6  7  8 11  1  2  3  4  5  6  9 11
      -0.000009311131  1  2  3  4  5  6  7  8 11  1  2  3  4  5  6 10 11
       0.000034045538  1  2  3  4  5  6  7  8 11  1  2  3  4  5  6 12 13
       0.000034045538  1  2  3  4  5  6  7  8 11  1  2  3  4  5  6 14 15
      -0.000002031580  1  2  3  4  5  6  7  8 11  1  2  3  4  5  7  8  9
       0.000002962676  1  2  3  4  5  6  7  8 11  1  2  3  4  5  7  8 10
       0.000004178757  1  2  3  4  5  6  7  8 11  1  2  3  4  5  7  8 11
       0.000001176138  1  2  3  4  5  6  7  8 11  1  2  3  4  5  7  9 10
       0.000002162573  1  2  3  4  5  6  7  8 11  1  2  3  4  5  7  9 11
      -0.000004629788  1  2  3  4  5  6  7  8 11  1  2  3  4  5  7 10 11
      -0.000105887379  1  2  3  4  5  6  7  8 11  1  2  3  4  5  7 12 13
      -0.000105887379  1  2  3  4  5  6  7  8 11  1  2  3  4  5  7 14 15
      -0.000001232631  1  2  3  4  5  6  7  8 11  1  2  3  4  5  8  9 10
      -0.000000612822  1  2  3  4  5  6  7  8 11  1  2  3  4  5  8  9 11
       0.000000941055  1  2  3  4  5  6  7  8 11  1  2  3  4  5  8 10 11
       0.000020677586  1  2  3  4  5  6  7  8 11  1  2  3  4  5  8 12 13
       0.000020677586  1  2  3  4  5  6  7  8 11  1  2  3  4  5  8 14 15
      -0.000000967540  1  2  3  4  5  6  7  8 11  1  2  3  4  5  9 10 11
       0.000020177072  1  2  3  4  5  6  7  8 11  1  2  3  4  5  9 12 13
       0.000020177072  1  2  3  4  5  6  7  8 11  1  2  3  4  5  9 14 15
      -0.000001275012  1  2  3  4  5  6  7  8 11  1  2  3  4  5 10 12 13
      -0.000001275012  1  2  3  4  5  6  7  8 11  1  2  3  4  5 10 14 15
      -0.000004700474  1  2  3  4  5  6  7  8 11  1  2  3  4  5 11 12 13
      -0.000004700474  1  2  3  4  5  6  7  8 11  1  2  3  4  5 11 14 15
       0.000040289384  1  2  3  4  5  6  7  9 10  1  2  3  4  5  6  7  8
       0.000165979874  1  2  3  4  5  6  7  9 10  1  2  3  4  5  6  7  9
      -0.000174470071  1  2  3  4  5  6  7  9 10  1  2  3  4  5  6  7 10
      -0.000007145694  1  2  3  4  5  6  7  9 10  1  2  3  4  5  6  7 11
      -0.000032414886  1  2  3  4  5  6  7  9 10  1  2  3  4  5  6  8  9
       0.000053734151  1  2  3  4  5  6  7  9 10  1  2  3  4  5  6  8 10
       0.000002305496  1  2  3  4  5  6  7  9 10  1  2  3  4  5  6  8 11
       0.000086403934  1  2  3  4  5  6  7  9 10  1  2  3  4  5  6  9 10
       0.000006201432  1  2  3  4  5  6  7  9 10  1  2  3  4  5  6  9 11
      -0.000003086306  1  2  3  4  5  6  7  9 10  1  2  3  4  5  6 10 11
       0.000001970839  1  2  3  4  5  6  7  9 10  1  2  3  4  5  6 12 13
       0.000001970839  1  2  3  4  5  6  7  9 10  1  2  3  4  5  6 14 15
       0.000001847999  1  2  3  4  5  6  7  9 10  1  2  3  4  5  7  8  9
      -0.000002503930  1  2  3  4  5  6  7  9 10  1  2  3  4  5  7  8 10
      -0.000001129440  1  2  3  4  5  6  7  9 10  1  2  3  4  5  7  8 11
       0.000001514515  1  2  3  4  5  6  7  9 10  1  2  3  4  5  7  9 10
       0.000000839092  1  2  3  4  5  6  7  9 10  1  2  3  4  5  7  9 11
       0.000000585422  1  2  3  4  5  6  7  9 10  1  2  3  4  5  7 10 11
      -0.000033854285  1  2  3  4  5  6  7  9 10  1  2  3  4  5  7 12 13
      -0.000033854285  1  2  3  4  5  6  7  9 10  1  2  3  4  5  7 14 15
      -0.000002116711  1  2  3  4  5  6  7  9 10  1  2  3  4  5  8  9 10
       0.000001206466  1  2  3  4  5  6  7  9 10  1  2  3  4  5  8  9 11
      -0.000002217669  1  2  3  4  5  6  7  9 10  1  2  3  4  5  8 10 11
       0.000011086954  1  2  3  4  5  6  7  9 10  1  2  3  4  5  8 12 13
       0.000011086954  1  2  3  4  5  6  7  9 10  1  2  3  4  5  8 14 15
      -0.000000308718  1  2  3  4  5  6  7  9 10  1  2  3  4  5  9 10 11
       0.000012304124  1  2  3  4  5  6  7  9 10  1  2  3  4  5  9 12 13
       0.000012304124  1  2  3  4  5  6  7  9 10  1  2  3  4  5  9 14 15
       0.000005040488  1  2  3  4  5  6  7  9 10  1  2  3  4  5 10 12 13
       0.000005040488  1  2  3  4  5  6  7  9 10  1  2  3  4  5 10 14 15
       0.000003339730  1  2  3  4  5  6  7  9 10  1  2  3  4  5 11 12 13
       0.000003339730  1  2  3  4  5  6  7  9 10  1  2  3  4  5 11 14 15
      -0.000074785064  1  2  3  4  5  6  7  9 11  1  2  3  4  5  6  7  8
       0.000076958030  1  2  3  4  5  6  7  9 11  1  2  3  4  5  6  7  9
      -0.000056878374  1  2  3  4  5  6  7  9 11  1  2  3  4  5  6  7 10
      -0.000109007314  1  2  3  4  5  6  7  9 11  1  2  3  4  5  6  7 11
      -0.000111199509  1  2  3  4  5  6  7  9 11  1  2  3  4  5  6  8  9
       0.000076320207  1  2  3  4  5  6  7  9 11  1  2  3  4  5  6  8 10
       0.000049279922  1  2  3  4  5  6  7  9 11  1  2  3  4  5  6  8 11
       0.000006952714  1  2  3  4  5  6  7  9 11  1  2  3  4  5  6  9 10
       0.000103542396  1  2  3  4  5  6  7  9 11  1  2  3  4  5  6  9 11
      -0.000068897722  1  2  3  4  5  6  7  9 11  1  2  3  4  5  6 10 11
      -0.000080105755  1  2  3  4  5  6  7  9 11  1  2  3  4  5  6 12 13
      -0.000080105755  1  2  3  4  5  6  7  9 11  1  2  3  4  5  6 14 15
      -0.000009065644  1  2  3  4  5  6  7  9 11  1  2  3  4  5  7  8  9
       0.000005811152  1  2  3  4  5  6  7  9 11  1  2  3  4  5  7  8 10
       0.000004386958  1  2  3  4  5  6  7  9 11  1  2  3  4  5  7  8 11
      -0.000001688223  1  2  3  4  5  6  7  9 11  1  2  3  4  5  7  9 10
       0.000004671525  1  2  3  4  5  6  7  9 11  1  2  3  4  5  7  9 11
      -0.000004053077  1  2  3  4  5  6  7  9 11  1  2  3  4  5  7 10 11
      -0.000072309759  1  2  3  4  5  6  7  9 11  1  2  3  4  5  7 12 13
      -0.000072309759  1  2  3  4  5  6  7  9 11  1  2  3  4  5  7 14 15
       0.000001143349  1  2  3  4  5  6  7  9 11  1  2  3  4  5  8  9 10
       0.000003133898  1  2  3  4  5  6  7  9 11  1  2  3  4  5  8  9 11
      -0.000001685472  1  2  3  4  5  6  7  9 11  1  2  3  4  5  8 10 11
       0.000045339082  1  2  3  4  5  6  7  9 11  1  2  3  4  5  8 12 13
       0.000045339082  1  2  3  4  5  6  7  9 11  1  2  3  4  5  8 14 15
       0.000001127694  1  2  3  4  5  6  7  9 11  1  2  3  4  5  9 10 11
       0.000056218912  1  2  3  4  5  6  7  9 11  1  2  3  4  5  9 12 13
       0.000056218912  1  2  3  4  5  6  7  9 11  1  2  3  4  5  9 14 15
      -0.000033539434  1  2  3  4  5  6  7  9 11  1  2  3  4  5 10 12 13
      -0.000033539434  1  2  3  4  5  6  7  9 11  1  2  3  4  5 10 14 15
       0.000020969402  1  2  3  4  5  6  7  9 11  1  2  3  4  5 11 12 13
       0.000020969402  1  2  3  4  5  6  7  9 11  1  2  3  4  5 11 14 15
      -0.000065201543  1  2  3  4  5  6  7 10 11  1  2  3  4  5  6  7  8
      -0.000049782006  1  2  3  4  5  6  7 10 11  1  2  3  4  5  6  7  9
       0.000090822236  1  2  3  4  5  6  7 10 11  1  2  3  4  5  6  7 10
      -0.000052759060  1  2  3  4  5  6  7 10 11  1  2  3  4  5  6  7 11
       0.000077650802  1  2  3  4  5  6  7 10 11  1  2  3  4  5  6  8  9
      -0.000119641427  1  2  3  4  5  6  7 10 11  1  2  3  4  5  6  8 10
      -0.000007853828  1  2  3  4  5  6  7 10 11  1  2  3  4  5  6  8 11
      -0.000002931689  1  2  3  4  5  6  7 10 11  1  2  3  4  5  6  9 10
      -0.000072302884  1  2  3  4  5  6  7 10 11  1  2  3  4  5  6  9 11
       0.000108108061  1  2  3  4  5  6  7 10 11  1  2  3  4  5  6 10 11
       0.000067432155  1  2  3  4  5  6  7 10 11  1  2  3  4  5  6 12 13
       0.000067432155  1  2  3  4  5  6  7 10 11  1  2  3  4  5  6 14 15
       0.000005135919  1  2  3  4  5  6  7 10 11  1  2  3  4  5  7  8  9
      -0.000001502683  1  2  3  4  5  6  7 10 11  1  2  3  4  5  7  8 10
       0.000001448356  1  2  3  4  5  6  7 10 11  1  2  3  4  5  7  8 11
       0.000002676137  1  2  3  4  5  6  7 10 11  1  2  3  4  5  7  9 10
      -0.000002401796  1  2  3  4  5  6  7 10 11  1  2  3  4  5  7  9 11
      -0.000002782613  1  2  3  4  5  6  7 10 11  1  2  3  4  5  7 10 11
      -0.000005432213  1  2  3  4  5  6  7 10 11  1  2  3  4  5  7 12 13
      -0.000005432213  1  2  3  4  5  6  7 10 11  1  2  3  4  5  7 14 15
      -0.000001063484  1  2  3  4  5  6  7 10 11  1  2  3  4  5  8  9 10
      -0.000002278996  1  2  3  4  5  6  7 10 11  1  2  3  4  5  8  9 11
       0.000004075743  1  2  3  4  5  6  7 10 11  1  2  3  4  5  8 10 11
      -0.000031211510  1  2  3  4  5  6  7 10 11  1  2  3  4  5  8 12 13
      -0.000031211510  1  2  3  4  5  6  7 10 11  1  2  3  4  5  8 14 15
      -0.000000907359  1  2  3  4  5  6  7 10 11  1  2  3  4  5  9 10 11
      -0.000036560564  1  2  3  4  5  6  7 10 11  1  2  3  4  5  9 12 13
      -0.000036560564  1  2  3  4  5  6  7 10 11  1  2  3  4  5  9 14 15
       0.000054278330  1  2  3  4  5  6  7 10 11  1  2  3  4  5 10 12 13
       0.000054278330  1  2  3  4  5  6  7 10 11  1  2  3  4  5 10 14 15
      -0.000023935128  1  2  3  4  5  6  7 10 11  1  2  3  4  5 11 12 13
      -0.000023935128  1  2  3  4  5  6  7 10 11  1  2  3  4  5 11 14 15
      -0.000152431633  1  2  3  4  5  6  7 12 13  1  2  3  4  5  6  7  8
      -0.000359791303  1  2  3  4  5  6  7 12 13  1  2  3  4  5  6  7  9
       0.000441238989  1  2  3  4  5  6  7 12 13  1  2  3  4  5  6  7 10
      -0.000137210602  1  2  3  4  5  6  7 12 13  1  2  3  4  5  6  7 11
       0.000095363380  1  2  3  4  5  6  7 12 13  1  2  3  4  5  6  8  9
      -0.000119806942  1  2  3  4  5  6  7 12 13  1  2  3  4  5  6  8 10
       0.000029060656  1  2  3  4  5  6  7 12 13  1  2  3  4  5  6  8 11
      -0.000063777731  1  2  3  4  5  6  7 12 13  1  2  3  4  5  6  9 10
      -0.000068901265  1  2  3  4  5  6  7 12 13  1  2  3  4  5  6  9 11
       0.000075530912  1  2  3  4  5  6  7 12 13  1  2  3  4  5  6 10 11
      -0.003154857769  1  2  3  4  5  6  7 12 13  1  2  3  4  5  6 12 13
       0.005983851342  1  2  3  4  5  6  7 12 13  1  2  3  4  5  6 14 15
      -0.000004159380  1  2  3  4  5  6  7 12 13  1  2  3  4  5  7  8  9
       0.000005095957  1  2  3  4  5  6  7 12 13  1  2  3  4  5  7  8 10
       0.000001126580  1  2  3  4  5  6  7 12 13  1  2  3  4  5  7  8 11
      -0.000007206214  1  2  3  4  5  6  7 12 13  1  2  3  4  5  7  9 10
       0.000000514733  1  2  3  4  5  6  7 12 13  1  2  3  4  5  7  9 11
      -0.000002479107  1  2  3  4  5  6  7 12 13  1  2  3  4  5  7 10 11
       0.000086603804  1  2  3  4  5  6  7 12 13  1  2  3  4  5  7 12 13
      -0.000170394777  1  2  3  4  5  6  7 12 13  1  2  3  4  5  7 14 15
       0.000000801361  1  2  3  4  5  6  7 12 13  1  2  3  4  5  8  9 10
      -0.000000299631  1  2  3  4  5  6  7 12 13  1  2  3  4  5  8  9 11
       0.000000662090  1  2  3  4  5  6  7 12 13  1  2  3  4  5  8 10 11
       0.000057341284  1  2  3  4  5  6  7 12 13  1  2  3  4  5  8 12 13
      -0.000131796990  1  2  3  4  5  6  7 12 13  1  2  3  4  5  8 14 15
      -0.000001392012  1  2  3  4  5  6  7 12 13  1  2  3  4  5  9 10 11
      -0.000109309233  1  2  3  4  5  6  7 12 13  1  2  3  4  5  9 12 13
       0.000082323625  1  2  3  4  5  6  7 12 13  1  2  3  4  5  9 14 15
       0.000043525755  1  2  3  4  5  6  7 12 13  1  2  3  4  5 10 12 13
       0.000031628237  1  2  3  4  5  6  7 12 13  1  2  3  4  5 10 14 15
       0.000059694583  1  2  3  4  5  6  7 12 13  1  2  3  4  5 11 12 13
      -0.000145022685  1  2  3  4  5  6  7 12 13  1  2  3  4  5 11 14 15
      -0.000152431633  1  2  3  4  5  6  7 14 15  1  2  3  4  5  6  7  8
      -0.000359791303  1  2  3  4  5  6  7 14 15  1  2  3  4  5  6  7  9
       0.000441238989  1  2  3  4  5  6  7 14 15  1  2  3  4  5  6  7 10
      -0.000137210602  1  2  3  4  5  6  7 14 15  1  2  3  4  5  6  7 11
       0.000095363380  1  2  3  4  5  6  7 14 15  1  2  3  4  5  6  8  9
      -0.000119806942  1  2  3  4  5  6  7 14 15  1  2  3  4  5  6  8 10
       0.000029060656  1  2  3  4  5  6  7 14 15  1  2  3  4  5  6  8 11
      -0.000063777731  1  2  3  4  5  6  7 14 15  1  2  3  4  5  6  9 10
      -0.000068901265  1  2  3  4  5  6  7 14 15  1  2  3  4  5  6  9 11
       0.000075530912  1  2  3  4  5  6  7 14 15  1  2  3  4  5  6 10 11
       0.005983851342  1  2  3  4  5  6  7 14 15  1  2  3  4  5  6 12 13
      -0.003154857769  1  2  3  4  5  6  7 14 15  1  2  3  4  5  6 14 15
      -0.000004159380  1  2  3  4  5  6  7 14 15  1  2  3  4  5  7  8  9
       0.000005095957  1  2  3  4  5  6  7 14 15  1  2  3  4  5  7  8 10
       0.000001126580  1  2  3  4  5  6  7 14 15  1  2  3  4  5  7  8 11
      -0.000007206214  1  2  3  4  5  6  7 14 15  1  2  3  4  5  7  9 10
       0.000000514733  1  2  3  4  5  6  7 14 15  1  2  3  4  5  7  9 11
      -0.000002479107  1  2  3  4  5  6  7 14 15  1  2  3  4  5  7 10 11
      -0.000170394777  1  2  3  4  5  6  7 14 15  1  2  3  4  5  7 12 13
       0.000086603804  1  2  3  4  5  6  7 14 15  1  2  3  4  5  7 14 15
       0.000000801361  1  2  3  4  5  6  7 14 15  1  2  3  4  5  8  9 10
      -0.000000299631  1  2  3  4  5  6  7 14 15  1  2  3  4  5  8  9 11
       0.000000662090  1  2  3  4  5  6  7 14 15  1  2  3  4  5  8 10 11
      -0.000131796990  1  2  3  4  5  6  7 14 15  1  2  3  4  5  8 12 13
       0.000057341284  1  2  3  4  5  6  7 14 15  1  2  3  4  5  8 14 15
      -0.000001392012  1  2  3  4  5  6  7 14 15  1  2  3  4  5  9 10 11
       0.000082323625  1  2  3  4  5  6  7 14 15  1  2  3  4  5  9 12 13
      -0.000109309233  1  2  3  4  5  6  7 14 15  1  2  3  4  5  9 14 15
       0.000031628237  1  2  3  4  5  6  7 14 15  1  2  3  4  5 10 12 13
       0.000043525755  1  2  3  4  5  6  7 14 15  1  2  3  4  5 10 14 15
      -0.000145022685  1  2  3  4  5  6  7 14 15  1  2  3  4  5 11 12 13
       0.000059694583  1  2  3  4  5  6  7 14 15  1  2  3  4  5 11 14 15
      -0.000002790440  1  2  3  4  5  6  8  9 10  1  2  3  4  5  6  7  8
       0.000017340195  1  2  3  4  5  6  8  9 10  1  2  3  4  5  6  7  9
      -0.000011257860  1  2  3  4  5  6  8  9 10  1  2  3  4  5  6  7 10
      -0.000008299756  1  2  3  4  5  6  8  9 10  1  2  3  4  5  6  7 11
      -0.000013946886  1  2  3  4  5  6  8  9 10  1  2  3  4  5  6  8  9
       0.000010014379  1  2  3  4  5  6  8  9 10  1  2  3  4  5  6  8 10
       0.000003604926  1  2  3  4  5  6  8  9 10  1  2  3  4  5  6  8 11
      -0.000004012263  1  2  3  4  5  6  8  9 10  1  2  3  4  5  6  9 10
       0.000008531719  1  2  3  4  5  6  8  9 10  1  2  3  4  5  6  9 11
      -0.000005823428  1  2  3  4  5  6  8  9 10  1  2  3  4  5  6 10 11
      -0.000003534938  1  2  3  4  5  6  8  9 10  1  2  3  4  5  6 12 13
      -0.000003534938  1  2  3  4  5  6  8  9 10  1  2  3  4  5  6 14 15
      -0.000001497445  1  2  3  4  5  6  8  9 10  1  2  3  4  5  7  8  9
       0.000000872562  1  2  3  4  5  6  8  9 10  1  2  3  4  5  7  8 10
      -0.000000229403  1  2  3  4  5  6  8  9 10  1  2  3  4  5  7  8 11
      -0.000003649071  1  2  3  4  5  6  8  9 10  1  2  3  4  5  7  9 10
       0.000000760465  1  2  3  4  5  6  8  9 10  1  2  3  4  5  7  9 11
      -0.000000668018  1  2  3  4  5  6  8  9 10  1  2  3  4  5  7 10 11
      -0.000004622752  1  2  3  4  5  6  8  9 10  1  2  3  4  5  7 12 13
      -0.000004622752  1  2  3  4  5  6  8  9 10  1  2  3  4  5  7 14 15
       0.000001313949  1  2  3  4  5  6  8  9 10  1  2  3  4  5  8  9 10
       0.000000656165  1  2  3  4  5  6  8  9 10  1  2  3  4  5  8  9 11
      -0.000000575634  1  2  3  4  5  6  8  9 10  1  2  3  4  5  8 10 11
       0.000004353254  1  2  3  4  5  6  8  9 10  1  2  3  4  5  8 12 13
       0.000004353254  1  2  3  4  5  6  8  9 10  1  2  3  4  5  8 14 15
       0.000001281443  1  2  3  4  5  6  8  9 10  1  2  3  4  5  9 10 11
       0.000005054180  1  2  3  4  5  6  8  9 10  1  2  3  4  5  9 12 13
       0.000005054180  1  2  3  4  5  6  8  9 10  1  2  3  4  5  9 14 15
      -0.000005371908  1  2  3  4  5  6  8  9 10  1  2  3  4  5 10 12 13
      -0.000005371908  1  2  3  4  5  6  8  9 10  1  2  3  4  5 10 14 15
       0.000001912970  1  2  3  4  5  6  8  9 10  1  2  3  4  5 11 12 13
       0.000001912970  1  2  3  4  5  6  8  9 10  1  2  3  4  5 11 14 15
       0.000001196867  1  2  3  4  5  6  8  9 11  1  2  3  4  5  6  7  8
      -0.000004481545  1  2  3  4  5  6  8  9 11  1  2  3  4  5  6  7  9
       0.000001472598  1  2  3  4  5  6  8  9 11  1  2  3  4  5  6  7 10
       0.000004437341  1  2  3  4  5  6  8  9 11  1  2  3  4  5  6  7 11
       0.000007439109  1  2  3  4  5  6  8  9 11  1  2  3  4  5  6  8  9
      -0.000004308147  1  2  3  4  5  6  8  9 11  1  2  3  4  5  6  8 10
      -0.000000967444  1  2  3  4  5  6  8  9 11  1  2  3  4  5  6  8 11
      -0.000000256235  1  2  3  4  5  6  8  9 11  1  2  3  4  5  6  9 10
      -0.000011319109  1  2  3  4  5  6  8  9 11  1  2  3  4  5  6  9 11
       0.000006914571  1  2  3  4  5  6  8  9 11  1  2  3  4  5  6 10 11
      -0.000003140566  1  2  3  4  5  6  8  9 11  1  2  3  4  5  6 12 13
      -0.000003140566  1  2  3  4  5  6  8  9 11  1  2  3  4  5  6 14 15
       0.000001829817  1  2  3  4  5  6  8  9 11  1  2  3  4  5  7  8  9
      -0.000000155221  1  2  3  4  5  6  8  9 11  1  2  3  4  5  7  8 10
       0.000000865789  1  2  3  4  5  6  8  9 11  1  2  3  4  5  7  8 11
      -0.000001050344  1  2  3  4  5  6  8  9 11  1  2  3  4  5  7  9 10
      -0.000006025934  1  2  3  4  5  6  8  9 11  1  2  3  4  5  7  9 11
       0.000002434776  1  2  3  4  5  6  8  9 11  1  2  3  4  5  7 10 11
      -0.000001798405  1  2  3  4  5  6  8  9 11  1  2  3  4  5  7 12 13
      -0.000001798405  1  2  3  4  5  6  8  9 11  1  2  3  4  5  7 14 15
       0.000000403243  1  2  3  4  5  6  8  9 11  1  2  3  4  5  8  9 10
       0.000001475658  1  2  3  4  5  6  8  9 11  1  2  3  4  5  8  9 11
      -0.000000616905  1  2  3  4  5  6  8  9 11  1  2  3  4  5  8 10 11
      -0.000000599459  1  2  3  4  5  6  8  9 11  1  2  3  4  5  8 12 13
      -0.000000599459  1  2  3  4  5  6  8  9 11  1  2  3  4  5  8 14 15
      -0.000000296689  1  2  3  4  5  6  8  9 11  1  2  3  4  5  9 10 11
      -0.000001165966  1  2  3  4  5  6  8  9 11  1  2  3  4  5  9 12 13
      -0.000001165966  1  2  3  4  5  6  8  9 11  1  2  3  4  5  9 14 15
       0.000000866169  1  2  3  4  5  6  8  9 11  1  2  3  4  5 10 12 13
       0.000000866169  1  2  3  4  5  6  8  9 11  1  2  3  4  5 10 14 15
      -0.000002424414  1  2  3  4  5  6  8  9 11  1  2  3  4  5 11 12 13
      -0.000002424414  1  2  3  4  5  6  8  9 11  1  2  3  4  5 11 14 15
      -0.000000825725  1  2  3  4  5  6  8 10 11  1  2  3  4  5  6  7  8
       0.000006172875  1  2  3  4  5  6  8 10 11  1  2  3  4  5  6  7  9
      -0.000005023877  1  2  3  4  5  6  8 10 11  1  2  3  4  5  6  7 10
       0.000001404562  1  2  3  4  5  6  8 10 11  1  2  3  4  5  6  7 11
      -0.000007861216  1  2  3  4  5  6  8 10 11  1  2  3  4  5  6  8  9
       0.000012531621  1  2  3  4  5  6  8 10 11  1  2  3  4  5  6  8 10
       0.000003711663  1  2  3  4  5  6  8 10 11  1  2  3  4  5  6  8 11
       0.000001870989  1  2  3  4  5  6  8 10 11  1  2  3  4  5  6  9 10
       0.000010091374  1  2  3  4  5  6  8 10 11  1  2  3  4  5  6  9 11
      -0.000017060148  1  2  3  4  5  6  8 10 11  1  2  3  4  5  6 10 11
       0.000005271170  1  2  3  4  5  6  8 10 11  1  2  3  4  5  6 12 13
       0.000005271170  1  2  3  4  5  6  8 10 11  1  2  3  4  5  6 14 15
       0.000001401689  1  2  3  4  5  6  8 10 11  1  2  3  4  5  7  8  9
      -0.000000360069  1  2  3  4  5  6  8 10 11  1  2  3  4  5  7  8 10
       0.000000870186  1  2  3  4  5  6  8 10 11  1  2  3  4  5  7  8 11
       0.000001106015  1  2  3  4  5  6  8 10 11  1  2  3  4  5  7  9 10
       0.000001253954  1  2  3  4  5  6  8 10 11  1  2  3  4  5  7  9 11
      -0.000003062893  1  2  3  4  5  6  8 10 11  1  2  3  4  5  7 10 11
      -0.000004243268  1  2  3  4  5  6  8 10 11  1  2  3  4  5  7 12 13
      -0.000004243268  1  2  3  4  5  6  8 10 11  1  2  3  4  5  7 14 15
      -0.000001084281  1  2  3  4  5  6  8 10 11  1  2  3  4  5  8  9 10
      -0.000000435781  1  2  3  4  5  6  8 10 11  1  2  3  4  5  8  9 11
       0.000000839614  1  2  3  4  5  6  8 10 11  1  2  3  4  5  8 10 11
       0.000003191844  1  2  3  4  5  6  8 10 11  1  2  3  4  5  8 12 13
       0.000003191844  1  2  3  4  5  6  8 10 11  1  2  3  4  5  8 14 15
      -0.000000282809  1  2  3  4  5  6  8 10 11  1  2  3  4  5  9 10 11
       0.000001972325  1  2  3  4  5  6  8 10 11  1  2  3  4  5  9 12 13
       0.000001972325  1  2  3  4  5  6  8 10 11  1  2  3  4  5  9 14 15
      -0.000002689993  1  2  3  4  5  6  8 10 11  1  2  3  4  5 10 12 13
      -0.000002689993  1  2  3  4  5  6  8 10 11  1  2  3  4  5 10 14 15
       0.000003006350  1  2  3  4  5  6  8 10 11  1  2  3  4  5 11 12 13
       0.000003006350  1  2  3  4  5  6  8 10 11  1  2  3  4  5 11 14 15
       0.000155198367  1  2  3  4  5  6  8 12 13  1  2  3  4  5  6  7  8
       0.000068674433  1  2  3  4  5  6  8 12 13  1  2  3  4  5  6  7  9
      -0.000147953173  1  2  3  4  5  6  8 12 13  1  2  3  4  5  6  7 10
       0.000114542857  1  2  3  4  5  6  8 12 13  1  2  3  4  5  6  7 11
      -0.000006553051  1  2  3  4  5  6  8 12 13  1  2  3  4  5  6  8  9
       0.000062462271  1  2  3  4  5  6  8 12 13  1  2  3  4  5  6  8 10
      -0.000009346519  1  2  3  4  5  6  8 12 13  1  2  3  4  5  6  8 11
       0.000023864587  1  2  3  4  5  6  8 12 13  1  2  3  4  5  6  9 10
      -0.000003669696  1  2  3  4  5  6  8 12 13  1  2  3  4  5  6  9 11
      -0.000032446670  1  2  3  4  5  6  8 12 13  1  2  3  4  5  6 10 11
       0.000040291464  1  2  3  4  5  6  8 12 13  1  2  3  4  5  6 12 13
      -0.000029965551  1  2  3  4  5  6  8 12 13  1  2  3  4  5  6 14 15
       0.000000758725  1  2  3  4  5  6  8 12 13  1  2  3  4  5  7  8  9
      -0.000001003723  1  2  3  4  5  6  8 12 13  1  2  3  4  5  7  8 10
      -0.000002141617  1  2  3  4  5  6  8 12 13  1  2  3  4  5  7  8 11
       0.000003358244  1  2  3  4  5  6  8 12 13  1  2  3  4  5  7  9 10
       0.000000000000  1  2  3  4  5  6  8 12 13  1  2  3  4  5  7  9 11
       0.000001888989  1  2  3  4  5  6  8 12 13  1  2  3  4  5  7 10 11
       0.000029005662  1  2  3  4  5  6  8 12 13  1  2  3  4  5  7 12 13
      -0.000060751855  1  2  3  4  5  6  8 12 13  1  2  3  4  5  7 14 15
      -0.000000510463  1  2  3  4  5  6  8 12 13  1  2  3  4  5  8  9 10
       0.000001111326  1  2  3  4  5  6  8 12 13  1  2  3  4  5  8  9 11
      -0.000001622727  1  2  3  4  5  6  8 12 13  1  2  3  4  5  8 10 11
       0.000012318861  1  2  3  4  5  6  8 12 13  1  2  3  4  5  8 12 13
       0.000022089723  1  2  3  4  5  6  8 12 13  1  2  3  4  5  8 14 15
       0.000000457387  1  2  3  4  5  6  8 12 13  1  2  3  4  5  9 10 11
       0.000003848889  1  2  3  4  5  6  8 12 13  1  2  3  4  5  9 12 13
       0.000022536895  1  2  3  4  5  6  8 12 13  1  2  3  4  5  9 14 15
      -0.000003498435  1  2  3  4  5  6  8 12 13  1  2  3  4  5 10 12 13
      -0.000036314750  1  2  3  4  5  6  8 12 13  1  2  3  4  5 10 14 15
      -0.000005841799  1  2  3  4  5  6  8 12 13  1  2  3  4  5 11 12 13
       0.000043350330  1  2  3  4  5  6  8 12 13  1  2  3  4  5 11 14 15
       0.000155198367  1  2  3  4  5  6  8 14 15  1  2  3  4  5  6  7  8
       0.000068674433  1  2  3  4  5  6  8 14 15  1  2  3  4  5  6  7  9
      -0.000147953173  1  2  3  4  5  6  8 14 15  1  2  3  4  5  6  7 10
       0.000114542857  1  2  3  4  5  6  8 14 15  1  2  3  4  5  6  7 11
      -0.000006553051  1  2  3  4  5  6  8 14 15  1  2  3  4  5  6  8  9
       0.000062462271  1  2  3  4  5  6  8 14 15  1  2  3  4  5  6  8 10
      -0.000009346519  1  2  3  4  5  6  8 14 15  1  2  3  4  5  6  8 11
       0.000023864587  1  2  3  4  5  6  8 14 15  1  2  3  4  5  6  9 10
      -0.000003669696  1  2  3  4  5  6  8 14 15  1  2  3  4  5  6  9 11
      -0.000032446670  1  2  3  4  5  6  8 14 15  1  2  3  4  5  6 10 11
      -0.000029965551  1  2  3  4  5  6  8 14 15  1  2  3  4  5  6 12 13
       0.000040291464  1  2  3  4  5  6  8 14 15  1  2  3  4  5  6 14 15
       0.000000758725  1  2  3  4  5  6  8 14 15  1  2  3  4  5  7  8  9
      -0.000001003723  1  2  3  4  5  6  8 14 15  1  2  3  4  5  7  8 10
      -0.000002141617  1  2  3  4  5  6  8 14 15  1  2  3  4  5  7  8 11
       0.000003358244  1  2  3  4  5  6  8 14 15  1  2  3  4  5  7  9 10
       0.000000000000  1  2  3  4  5  6  8 14 15  1  2  3  4  5  7  9 11
       0.000001888989  1  2  3  4  5  6  8 14 15  1  2  3  4  5  7 10 11
      -0.000060751855  1  2  3  4  5  6  8 14 15  1  2  3  4  5  7 12 13
       0.000029005662  1  2  3  4  5  6  8 14 15  1  2  3  4  5  7 14 15
      -0.000000510463  1  2  3  4  5  6  8 14 15  1  2  3  4  5  8  9 10
       0.000001111326  1  2  3  4  5  6  8 14 15  1  2  3  4  5  8  9 11
      -0.000001622727  1  2  3  4  5  6  8 14 15  1  2  3  4  5  8 10 11
       0.000022089723  1  2  3  4  5  6  8 14 15  1  2  3  4  5  8 12 13
       0.000012318861  1  2  3  4  5  6  8 14 15  1  2  3  4  5  8 14 15
       0.000000457387  1  2  3  4  5  6  8 14 15  1  2  3  4  5  9 10 11
       0.000022536895  1  2  3  4  5  6  8 14 15  1  2  3  4  5  9 12 13
       0.000003848889  1  2  3  4  5  6  8 14 15  1  2  3  4  5  9 14 15
      -0.000036314750  1  2  3  4  5  6  8 14 15  1  2  3  4  5 10 12 13
      -0.000003498435  1  2  3  4  5  6  8 14 15  1  2  3  4  5 10 14 15
       0.000043350330  1  2  3  4  5  6  8 14 15  1  2  3  4  5 11 12 13
      -0.000005841799  1  2  3  4  5  6  8 14 15  1  2  3  4  5 11 14 15
      -0.000003631426  1  2  3  4  5  6  9 10 11  1  2  3  4  5  6  7  8
       0.000000692332  1  2  3  4  5  6  9 10 11  1  2  3  4  5  6  7  9
       0.000000156182  1  2  3  4  5  6  9 10 11  1  2  3  4  5  6  7 10
      -0.000003401923  1  2  3  4  5  6  9 10 11  1  2  3  4  5  6  7 11
      -0.000008788771  1  2  3  4  5  6  9 10 11  1  2  3  4  5  6  8  9
       0.000007758963  1  2  3  4  5  6  9 10 11  1  2  3  4  5  6  8 10
       0.000003174094  1  2  3  4  5  6  9 10 11  1  2  3  4  5  6  8 11
      -0.000000705398  1  2  3  4  5  6  9 10 11  1  2  3  4  5  6  9 10
       0.000007556897  1  2  3  4  5  6  9 10 11  1  2  3  4  5  6  9 11
      -0.000007275828  1  2  3  4  5  6  9 10 11  1  2  3  4  5  6 10 11
      -0.000003266433  1  2  3  4  5  6  9 10 11  1  2  3  4  5  6 12 13
      -0.000003266433  1  2  3  4  5  6  9 10 11  1  2  3  4  5  6 14 15
      -0.000000989571  1  2  3  4  5  6  9 10 11  1  2  3  4  5  7  8  9
       0.000000885861  1  2  3  4  5  6  9 10 11  1  2  3  4  5  7  8 10
       0.000000296343  1  2  3  4  5  6  9 10 11  1  2  3  4  5  7  8 11
      -0.000002262763  1  2  3  4  5  6  9 10 11  1  2  3  4  5  7  9 10
       0.000001820340  1  2  3  4  5  6  9 10 11  1  2  3  4  5  7  9 11
      -0.000002388877  1  2  3  4  5  6  9 10 11  1  2  3  4  5  7 10 11
      -0.000001693390  1  2  3  4  5  6  9 10 11  1  2  3  4  5  7 12 13
      -0.000001693390  1  2  3  4  5  6  9 10 11  1  2  3  4  5  7 14 15
       0.000000884833  1  2  3  4  5  6  9 10 11  1  2  3  4  5  8  9 10
       0.000000596797  1  2  3  4  5  6  9 10 11  1  2  3  4  5  8  9 11
      -0.000000317196  1  2  3  4  5  6  9 10 11  1  2  3  4  5  8 10 11
       0.000003272878  1  2  3  4  5  6  9 10 11  1  2  3  4  5  8 12 13
       0.000003272878  1  2  3  4  5  6  9 10 11  1  2  3  4  5  8 14 15
       0.000001701556  1  2  3  4  5  6  9 10 11  1  2  3  4  5  9 10 11
       0.000005018257  1  2  3  4  5  6  9 10 11  1  2  3  4  5  9 12 13
       0.000005018257  1  2  3  4  5  6  9 10 11  1  2  3  4  5  9 14 15
      -0.000004850352  1  2  3  4  5  6  9 10 11  1  2  3  4  5 10 12 13
      -0.000004850352  1  2  3  4  5  6  9 10 11  1  2  3  4  5 10 14 15
       0.000001874611  1  2  3  4  5  6  9 10 11  1  2  3  4  5 11 12 13
       0.000001874611  1  2  3  4  5  6  9 10 11  1  2  3  4  5 11 14 15
       0.000048774878  1  2  3  4  5  6  9 12 13  1  2  3  4  5  6  7  8
       0.000155985232  1  2  3  4  5  6  9 12 13  1  2  3  4  5  6  7  9
      -0.000150614257  1  2  3  4  5  6  9 12 13  1  2  3  4  5  6  7 10
      -0.000005562456  1  2  3  4  5  6  9 12 13  1  2  3  4  5  6  7 11
      -0.000013111356  1  2  3  4  5  6  9 12 13  1  2  3  4  5  6  8  9
       0.000029416099  1  2  3  4  5  6  9 12 13  1  2  3  4  5  6  8 10
      -0.000001407384  1  2  3  4  5  6  9 12 13  1  2  3  4  5  6  8 11
       0.000050061094  1  2  3  4  5  6  9 12 13  1  2  3  4  5  6  9 10
      -0.000003906527  1  2  3  4  5  6  9 12 13  1  2  3  4  5  6  9 11
       0.000004419763  1  2  3  4  5  6  9 12 13  1  2  3  4  5  6 10 11
       0.000019132852  1  2  3  4  5  6  9 12 13  1  2  3  4  5  6 12 13
      -0.000069125240  1  2  3  4  5  6  9 12 13  1  2  3  4  5  6 14 15
      -0.000002144568  1  2  3  4  5  6  9 12 13  1  2  3  4  5  7  8  9
       0.000000865258  1  2  3  4  5  6  9 12 13  1  2  3  4  5  7  8 10
      -0.000002211510  1  2  3  4  5  6  9 12 13  1  2  3  4  5  7  8 11
       0.000000399404  1  2  3  4  5  6  9 12 13  1  2  3  4  5  7  9 10
       0.000003226956  1  2  3  4  5  6  9 12 13  1  2  3  4  5  7  9 11
      -0.000000357933  1  2  3  4  5  6  9 12 13  1  2  3  4  5  7 10 11
       0.000026000231  1  2  3  4  5  6  9 12 13  1  2  3  4  5  7 12 13
      -0.000141686316  1  2  3  4  5  6  9 12 13  1  2  3  4  5  7 14 15
       0.000000430006  1  2  3  4  5  6  9 12 13  1  2  3  4  5  8  9 10
       0.000000771638  1  2  3  4  5  6  9 12 13  1  2  3  4  5  8  9 11
      -0.000001476301  1  2  3  4  5  6  9 12 13  1  2  3  4  5  8 10 11
       0.000008402948  1  2  3  4  5  6  9 12 13  1  2  3  4  5  8 12 13
       0.000011672104  1  2  3  4  5  6  9 12 13  1  2  3  4  5  8 14 15
       0.000001131800  1  2  3  4  5  6  9 12 13  1  2  3  4  5  9 10 11
       0.000003750135  1  2  3  4  5  6  9 12 13  1  2  3  4  5  9 12 13
       0.000036516343  1  2  3  4  5  6  9 12 13  1  2  3  4  5  9 14 15
      -0.000020689279  1  2  3  4  5  6  9 12 13  1  2  3  4  5 10 12 13
       0.000026008436  1  2  3  4  5  6  9 12 13  1  2  3  4  5 10 14 15
      -0.000009420297  1  2  3  4  5  6  9 12 13  1  2  3  4  5 11 12 13
       0.000025119406  1  2  3  4  5  6  9 12 13  1  2  3  4  5 11 14 15
       0.000048774878  1  2  3  4  5  6  9 14 15  1  2  3  4  5  6  7  8
       0.000155985232  1  2  3  4  5  6  9 14 15  1  2  3  4  5  6  7  9
      -0.000150614257  1  2  3  4  5  6  9 14 15  1  2  3  4  5  6  7 10
      -0.000005562456  1  2  3  4  5  6  9 14 15  1  2  3  4  5  6  7 11
      -0.000013111356  1  2  3  4  5  6  9 14 15  1  2  3  4  5  6  8  9
       0.000029416099  1  2  3  4  5  6  9 14 15  1  2  3  4  5  6  8 10
      -0.000001407384  1  2  3  4  5  6  9 14 15  1  2  3  4  5  6  8 11
       0.000050061094  1  2  3  4  5  6  9 14 15  1  2  3  4  5  6  9 10
      -0.000003906527  1  2  3  4  5  6  9 14 15  1  2  3  4  5  6  9 11
       0.000004419763  1  2  3  4  5  6  9 14 15  1  2  3  4  5  6 10 11
      -0.000069125240  1  2  3  4  5  6  9 14 15  1  2  3  4  5  6 12 13
       0.000019132852  1  2  3  4  5  6  9 14 15  1  2  3  4  5  6 14 15
      -0.000002144568  1  2  3  4  5  6  9 14 15  1  2  3  4  5  7  8  9
       0.000000865258  1  2  3  4  5  6  9 14 15  1  2  3  4  5  7  8 10
      -0.000002211510  1  2  3  4  5  6  9 14 15  1  2  3  4  5  7  8 11
       0.000000399404  1  2  3  4  5  6  9 14 15  1  2  3  4  5  7  9 10
       0.000003226956  1  2  3  4  5  6  9 14 15  1  2  3  4  5  7  9 11
      -0.000000357933  1  2  3  4  5  6  9 14 15  1  2  3  4  5  7 10 11
      -0.000141686316  1  2  3  4  5  6  9 14 15  1  2  3  4  5  7 12 13
       0.000026000231  1  2  3  4  5  6  9 14 15  1  2  3  4  5  7 14 15
       0.000000430006  1  2  3  4  5  6  9 14 15  1  2  3  4  5  8  9 10
       0.000000771638  1  2  3  4  5  6  9 14 15  1  2  3  4  5  8  9 11
      -0.000001476301  1  2  3  4  5  6  9 14 15  1  2  3  4  5  8 10 11
       0.000011672104  1  2  3  4  5  6  9 14 15  1  2  3  4  5  8 12 13
       0.000008402948  1  2  3  4  5  6  9 14 15  1  2  3  4  5  8 14 15
       0.000001131800  1  2  3  4  5  6  9 14 15  1  2  3  4  5  9 10 11
       0.000036516343  1  2  3  4  5  6  9 14 15  1  2  3  4  5  9 12 13
       0.000003750135  1  2  3  4  5  6  9 14 15  1  2  3  4  5  9 14 15
       0.000026008436  1  2  3  4  5  6  9 14 15  1  2  3  4  5 10 12 13
      -0.000020689279  1  2  3  4  5  6  9 14 15  1  2  3  4  5 10 14 15
       0.000025119406  1  2  3  4  5  6  9 14 15  1  2  3  4  5 11 12 13
      -0.000009420297  1  2  3  4  5  6  9 14 15  1  2  3  4  5 11 14 15
      -0.000023113860  1  2  3  4  5  6 10 12 13  1  2  3  4  5  6  7  8
      -0.000084743568  1  2  3  4  5  6 10 12 13  1  2  3  4  5  6  7  9
       0.000118479668  1  2  3  4  5  6 10 12 13  1  2  3  4  5  6  7 10
      -0.000006425493  1  2  3  4  5  6 10 12 13  1  2  3  4  5  6  7 11
       0.000001971989  1  2  3  4  5  6 10 12 13  1  2  3  4  5  6  8  9
      -0.000013787634  1  2  3  4  5  6 10 12 13  1  2  3  4  5  6  8 10
       0.000000145281  1  2  3  4  5  6 10 12 13  1  2  3  4  5  6  8 11
      -0.000032034068  1  2  3  4  5  6 10 12 13  1  2  3  4  5  6  9 10
       0.000004221469  1  2  3  4  5  6 10 12 13  1  2  3  4  5  6  9 11
      -0.000000246102  1  2  3  4  5  6 10 12 13  1  2  3  4  5  6 10 11
       0.000170662383  1  2  3  4  5  6 10 12 13  1  2  3  4  5  6 12 13
      -0.000322983363  1  2  3  4  5  6 10 12 13  1  2  3  4  5  6 14 15
      -0.000001848120  1  2  3  4  5  6 10 12 13  1  2  3  4  5  7  8  9
       0.000001522394  1  2  3  4  5  6 10 12 13  1  2  3  4  5  7  8 10
       0.000000640753  1  2  3  4  5  6 10 12 13  1  2  3  4  5  7  8 11
      -0.000003687152  1  2  3  4  5  6 10 12 13  1  2  3  4  5  7  9 10
       0.000000000000  1  2  3  4  5  6 10 12 13  1  2  3  4  5  7  9 11
      -0.000000357729  1  2  3  4  5  6 10 12 13  1  2  3  4  5  7 10 11
      -0.000066110778  1  2  3  4  5  6 10 12 13  1  2  3  4  5  7 12 13
       0.000149315925  1  2  3  4  5  6 10 12 13  1  2  3  4  5  7 14 15
       0.000000762037  1  2  3  4  5  6 10 12 13  1  2  3  4  5  8  9 10
      -0.000000511946  1  2  3  4  5  6 10 12 13  1  2  3  4  5  8  9 11
       0.000000653736  1  2  3  4  5  6 10 12 13  1  2  3  4  5  8 10 11
       0.000007406462  1  2  3  4  5  6 10 12 13  1  2  3  4  5  8 12 13
      -0.000026596642  1  2  3  4  5  6 10 12 13  1  2  3  4  5  8 14 15
      -0.000000374849  1  2  3  4  5  6 10 12 13  1  2  3  4  5  9 10 11
      -0.000024524755  1  2  3  4  5  6 10 12 13  1  2  3  4  5  9 12 13
       0.000029884248  1  2  3  4  5  6 10 12 13  1  2  3  4  5  9 14 15
       0.000041532395  1  2  3  4  5  6 10 12 13  1  2  3  4  5 10 12 13
      -0.000058040968  1  2  3  4  5  6 10 12 13  1  2  3  4  5 10 14 15
       0.000006768135  1  2  3  4  5  6 10 12 13  1  2  3  4  5 11 12 13
      -0.000019575230  1  2  3  4  5  6 10 12 13  1  2  3  4  5 11 14 15
      -0.000023113860  1  2  3  4  5  6 10 14 15  1  2  3  4  5  6  7  8
      -0.000084743568  1  2  3  4  5  6 10 14 15  1  2  3  4  5  6  7  9
       0.000118479668  1  2  3  4  5  6 10 14 15  1  2  3  4  5  6  7 10
      -0.000006425493  1  2  3  4  5  6 10 14 15  1  2  3  4  5  6  7 11
       0.000001971989  1  2  3  4  5  6 10 14 15  1  2  3  4  5  6  8  9
      -0.000013787634  1  2  3  4  5  6 10 14 15  1  2  3  4  5  6  8 10
       0.000000145281  1  2  3  4  5  6 10 14 15  1  2  3  4  5  6  8 11
      -0.000032034068  1  2  3  4  5  6 10 14 15  1  2  3  4  5  6  9 10
       0.000004221469  1  2  3  4  5  6 10 14 15  1  2  3  4  5  6  9 11
      -0.000000246102  1  2  3  4  5  6 10 14 15  1  2  3  4  5  6 10 11
      -0.000322983363  1  2  3  4  5  6 10 14 15  1  2  3  4  5  6 12 13
       0.000170662383  1  2  3  4  5  6 10 14 15  1  2  3  4  5  6 14 15
      -0.000001848120  1  2  3  4  5  6 10 14 15  1  2  3  4  5  7  8  9
       0.000001522394  1  2  3  4  5  6 10 14 15  1  2  3  4  5  7  8 10
       0.000000640753  1  2  3  4  5  6 10 14 15  1  2  3  4  5  7  8 11
      -0.000003687152  1  2  3  4  5  6 10 14 15  1  2  3  4  5  7  9 10
       0.000000000000  1  2  3  4  5  6 10 14 15  1  2  3  4  5  7  9 11
      -0.000000357729  1  2  3  4  5  6 10 14 15  1  2  3  4  5  7 10 11
       0.000149315925  1  2  3  4  5  6 10 14 15  1  2  3  4  5  7 12 13
      -0.000066110778  1  2  3  4  5  6 10 14 15  1  2  3  4  5  7 14 15
       0.000000762037  1  2  3  4  5  6 10 14 15  1  2  3  4  5  8  9 10
      -0.000000511946  1  2  3  4  5  6 10 14 15  1  2  3  4  5  8  9 11
       0.000000653736  1  2  3  4  5  6 10 14 15  1  2  3  4  5  8 10 11
      -0.000026596642  1  2  3  4  5  6 10 14 15  1  2  3  4  5  8 12 13
       0.000007406462  1  2  3  4  5  6 10 14 15  1  2  3  4  5  8 14 15
      -0.000000374849  1  2  3  4  5  6 10 14 15  1  2  3  4  5  9 10 11
       0.000029884248  1  2  3  4  5  6 10 14 15  1  2  3  4  5  9 12 13
      -0.000024524755  1  2  3  4  5  6 10 14 15  1  2  3  4  5  9 14 15
      -0.000058040968  1  2  3  4  5  6 10 14 15  1  2  3  4  5 10 12 13
       0.000041532395  1  2  3  4  5  6 10 14 15  1  2  3  4  5 10 14 15
      -0.000019575230  1  2  3  4  5  6 10 14 15  1  2  3  4  5 11 12 13
       0.000006768135  1  2  3  4  5  6 10 14 15  1  2  3  4  5 11 14 15
       0.000119552331  1  2  3  4  5  6 11 12 13  1  2  3  4  5  6  7  8
      -0.000016781473  1  2  3  4  5  6 11 12 13  1  2  3  4  5  6  7  9
      -0.000014492467  1  2  3  4  5  6 11 12 13  1  2  3  4  5  6  7 10
       0.000115926645  1  2  3  4  5  6 11 12 13  1  2  3  4  5  6  7 11
      -0.000000821358  1  2  3  4  5  6 11 12 13  1  2  3  4  5  6  8  9
       0.000037839083  1  2  3  4  5  6 11 12 13  1  2  3  4  5  6  8 10
      -0.000011154353  1  2  3  4  5  6 11 12 13  1  2  3  4  5  6  8 11
      -0.000003524794  1  2  3  4  5  6 11 12 13  1  2  3  4  5  6  9 10
      -0.000003008150  1  2  3  4  5  6 11 12 13  1  2  3  4  5  6  9 11
      -0.000029167277  1  2  3  4  5  6 11 12 13  1  2  3  4  5  6 10 11
      -0.000037913955  1  2  3  4  5  6 11 12 13  1  2  3  4  5  6 12 13
       0.000027818370  1  2  3  4  5  6 11 12 13  1  2  3  4  5  6 14 15
      -0.000004177532  1  2  3  4  5  6 11 12 13  1  2  3  4  5  7  8  9
       0.000002151573  1  2  3  4  5  6 11 12 13  1  2  3  4  5  7  8 10
      -0.000005275786  1  2  3  4  5  6 11 12 13  1  2  3  4  5  7  8 11
      -0.000002951136  1  2  3  4  5  6 11 12 13  1  2  3  4  5  7  9 10
       0.000000497052  1  2  3  4  5  6 11 12 13  1  2  3  4  5  7  9 11
       0.000004002719  1  2  3  4  5  6 11 12 13  1  2  3  4  5  7 10 11
       0.000093635325  1  2  3  4  5  6 11 12 13  1  2  3  4  5  7 12 13
      -0.000080088553  1  2  3  4  5  6 11 12 13  1  2  3  4  5  7 14 15
       0.000001663212  1  2  3  4  5  6 11 12 13  1  2  3  4  5  8  9 10
       0.000000878161  1  2  3  4  5  6 11 12 13  1  2  3  4  5  8  9 11
      -0.000002459688  1  2  3  4  5  6 11 12 13  1  2  3  4  5  8 10 11
      -0.000002570927  1  2  3  4  5  6 11 12 13  1  2  3  4  5  8 12 13
       0.000040944413  1  2  3  4  5  6 11 12 13  1  2  3  4  5  8 14 15
       0.000000750737  1  2  3  4  5  6 11 12 13  1  2  3  4  5  9 10 11
      -0.000016523619  1  2  3  4  5  6 11 12 13  1  2  3  4  5  9 12 13
       0.000041281581  1  2  3  4  5  6 11 12 13  1  2  3  4  5  9 14 15
      -0.000008706061  1  2  3  4  5  6 11 12 13  1  2  3  4  5 10 12 13
      -0.000031123717  1  2  3  4  5  6 11 12 13  1  2  3  4  5 10 14 15
      -0.000021080946  1  2  3  4  5  6 11 12 13  1  2  3  4  5 11 12 13
       0.000081849668  1  2  3  4  5  6 11 12 13  1  2  3  4  5 11 14 15
       0.000119552331  1  2  3  4  5  6 11 14 15  1  2  3  4  5  6  7  8
      -0.000016781473  1  2  3  4  5  6 11 14 15  1  2  3  4  5  6  7  9
      -0.000014492467  1  2  3  4  5  6 11 14 15  1  2  3  4  5  6  7 10
       0.000115926645  1  2  3  4  5  6 11 14 15  1  2  3  4  5  6  7 11
      -0.000000821358  1  2  3  4  5  6 11 14 15  1  2  3  4  5  6  8  9
       0.000037839083  1  2  3  4  5  6 11 14 15  1  2  3  4  5  6  8 10
      -0.000011154353  1  2  3  4  5  6 11 14 15  1  2  3  4  5  6  8 11
      -0.000003524794  1  2  3  4  5  6 11 14 15  1  2  3  4  5  6  9 10
      -0.000003008150  1  2  3  4  5  6 11 14 15  1  2  3  4  5  6  9 11
      -0.000029167277  1  2  3  4  5  6 11 14 15  1  2  3  4  5  6 10 11
       0.000027818370  1  2  3  4  5  6 11 14 15  1  2  3  4  5  6 12 13
      -0.000037913955  1  2  3  4  5  6 11 14 15  1  2  3  4  5  6 14 15
      -0.000004177532  1  2  3  4  5  6 11 14 15  1  2  3  4  5  7  8  9
       0.000002151573  1  2  3  4  5  6 11 14 15  1  2  3  4  5  7  8 10
      -0.000005275786  1  2  3  4  5  6 11 14 15  1  2  3  4  5  7  8 11
      -0.000002951136  1  2  3  4  5  6 11 14 15  1  2  3  4  5  7  9 10
       0.000000497052  1  2  3  4  5  6 11 14 15  1  2  3  4  5  7  9 11
       0.000004002719  1  2  3  4  5  6 11 14 15  1  2  3  4  5  7 10 11
      -0.000080088553  1  2  3  4  5  6 11 14 15  1  2  3  4  5  7 12 13
       0.000093635325  1  2  3  4  5  6 11 14 15  1  2  3  4  5  7 14 15
       0.000001663212  1  2  3  4  5  6 11 14 15  1  2  3  4  5  8  9 10
       0.000000878161  1  2  3  4  5  6 11 14 15  1  2  3  4  5  8  9 11
      -0.000002459688  1  2  3  4  5  6 11 14 15  1  2  3  4  5  8 10 11
       0.000040944413  1  2  3  4  5  6 11 14 15  1  2  3  4  5  8 12 13
      -0.000002570927  1  2  3  4  5  6 11 14 15  1  2  3  4  5  8 14 15
       0.000000750737  1  2  3  4  5  6 11 14 15  1  2  3  4  5  9 10 11
       0.000041281581  1  2  3  4  5  6 11 14 15  1  2  3  4  5  9 12 13
      -0.000016523619  1  2  3  4  5  6 11 14 15  1  2  3  4  5  9 14 15
      -0.000031123717  1  2  3  4  5  6 11 14 15  1  2  3  4  5 10 12 13
      -0.000008706061  1  2  3  4  5  6 11 14 15  1  2  3  4  5 10 14 15
       0.000081849668  1  2  3  4  5  6 11 14 15  1  2  3  4  5 11 12 13
      -0.000021080946  1  2  3  4  5  6 11 14 15  1  2  3  4  5 11 14 15
       0.000003461698  1  2  3  4  5  7  8  9 10  1  2  3  4  5  6  7  8
       0.000002378640  1  2  3  4  5  7  8  9 10  1  2  3  4  5  6  7  9
      -0.000009112728  1  2  3  4  5  7  8  9 10  1  2  3  4  5  6  7 10
      -0.000000557399  1  2  3  4  5  7  8  9 10  1  2  3  4  5  6  7 11
      -0.000002445701  1  2  3  4  5  7  8  9 10  1  2  3  4  5  6  8  9
       0.000004936935  1  2  3  4  5  7  8  9 10  1  2  3  4  5  6  8 10
      -0.000000323482  1  2  3  4  5  7  8  9 10  1  2  3  4  5  6  8 11
      -0.000001540957  1  2  3  4  5  7  8  9 10  1  2  3  4  5  6  9 10
      -0.000001250002  1  2  3  4  5  7  8  9 10  1  2  3  4  5  6  9 11
       0.000001303885  1  2  3  4  5  7  8  9 10  1  2  3  4  5  6 10 11
       0.000000000000  1  2  3  4  5  7  8  9 10  1  2  3  4  5  6 12 13
       0.000000000000  1  2  3  4  5  7  8  9 10  1  2  3  4  5  6 14 15
      -0.000004677596  1  2  3  4  5  7  8  9 10  1  2  3  4  5  7  8  9
       0.000003500126  1  2  3  4  5  7  8  9 10  1  2  3  4  5  7  8 10
       0.000000414473  1  2  3  4  5  7  8  9 10  1  2  3  4  5  7  8 11
      -0.000004640637  1  2  3  4  5  7  8  9 10  1  2  3  4  5  7  9 10
       0.000004053087  1  2  3  4  5  7  8  9 10  1  2  3  4  5  7  9 11
      -0.000003412455  1  2  3  4  5  7  8  9 10  1  2  3  4  5  7 10 11
      -0.000000610324  1  2  3  4  5  7  8  9 10  1  2  3  4  5  7 12 13
      -0.000000610324  1  2  3  4  5  7  8  9 10  1  2  3  4  5  7 14 15
       0.000003155909  1  2  3  4  5  7  8  9 10  1  2  3  4  5  8  9 10
       0.000000113301  1  2  3  4  5  7  8  9 10  1  2  3  4  5  8  9 11
       0.000000000000  1  2  3  4  5  7  8  9 10  1  2  3  4  5  8 10 11
       0.000001473877  1  2  3  4  5  7  8  9 10  1  2  3  4  5  8 12 13
       0.000001473877  1  2  3  4  5  7  8  9 10  1  2  3  4  5  8 14 15
       0.000002965942  1  2  3  4  5  7  8  9 10  1  2  3  4  5  9 10 11
       0.000000209913  1  2  3  4  5  7  8  9 10  1  2  3  4  5  9 12 13
       0.000000209913  1  2  3  4  5  7  8  9 10  1  2  3  4  5  9 14 15
      -0.000001974319  1  2  3  4  5  7  8  9 10  1  2  3  4  5 10 12 13
      -0.000001974319  1  2  3  4  5  7  8  9 10  1  2  3  4  5 10 14 15
       0.000000493060  1  2  3  4  5  7  8  9 10  1  2  3  4  5 11 12 13
       0.000000493060  1  2  3  4  5  7  8  9 10  1  2  3  4  5 11 14 15
      -0.000003944593  1  2  3  4  5  7  8  9 11  1  2  3  4  5  6  7  8
      -0.000008355747  1  2  3  4  5  7  8  9 11  1  2  3  4  5  6  7  9
       0.000005845195  1  2  3  4  5  7  8  9 11  1  2  3  4  5  6  7 10
       0.000002243417  1  2  3  4  5  7  8  9 11  1  2  3  4  5  6  7 11
       0.000003977958  1  2  3  4  5  7  8  9 11  1  2  3  4  5  6  8  9
      -0.000000915356  1  2  3  4  5  7  8  9 11  1  2  3  4  5  6  8 10
       0.000001563988  1  2  3  4  5  7  8  9 11  1  2  3  4  5  6  8 11
      -0.000001448644  1  2  3  4  5  7  8  9 11  1  2  3  4  5  6  9 10
      -0.000009140311  1  2  3  4  5  7  8  9 11  1  2  3  4  5  6  9 11
       0.000003176622  1  2  3  4  5  7  8  9 11  1  2  3  4  5  6 10 11
      -0.000001741026  1  2  3  4  5  7  8  9 11  1  2  3  4  5  6 12 13
      -0.000001741026  1  2  3  4  5  7  8  9 11  1  2  3  4  5  6 14 15
       0.000004007192  1  2  3  4  5  7  8  9 11  1  2  3  4  5  7  8  9
      -0.000001237851  1  2  3  4  5  7  8  9 11  1  2  3  4  5  7  8 10
       0.000000987994  1  2  3  4  5  7  8  9 11  1  2  3  4  5  7  8 11
      -0.000000296865  1  2  3  4  5  7  8  9 11  1  2  3  4  5  7  9 10
      -0.000009022504  1  2  3  4  5  7  8  9 11  1  2  3  4  5  7  9 11
       0.000004069076  1  2  3  4  5  7  8  9 11  1  2  3  4  5  7 10 11
      -0.000003862300  1  2  3  4  5  7  8  9 11  1  2  3  4  5  7 12 13
      -0.000003862300  1  2  3  4  5  7  8  9 11  1  2  3  4  5  7 14 15
      -0.000000209243  1  2  3  4  5  7  8  9 11  1  2  3  4  5  8  9 10
       0.000002559934  1  2  3  4  5  7  8  9 11  1  2  3  4  5  8  9 11
      -0.000001363782  1  2  3  4  5  7  8  9 11  1  2  3  4  5  8 10 11
       0.000000891550  1  2  3  4  5  7  8  9 11  1  2  3  4  5  8 12 13
       0.000000891550  1  2  3  4  5  7  8  9 11  1  2  3  4  5  8 14 15
      -0.000000743301  1  2  3  4  5  7  8  9 11  1  2  3  4  5  9 10 11
       0.000000091930  1  2  3  4  5  7  8  9 11  1  2  3  4  5  9 12 13
       0.000000091930  1  2  3  4  5  7  8  9 11  1  2  3  4  5  9 14 15
      -0.000000837619  1  2  3  4  5  7  8  9 11  1  2  3  4  5 10 12 13
      -0.000000837619  1  2  3  4  5  7  8  9 11  1  2  3  4  5 10 14 15
      -0.000002398081  1  2  3  4  5  7  8  9 11  1  2  3  4  5 11 12 13
      -0.000002398081  1  2  3  4  5  7  8  9 11  1  2  3  4  5 11 14 15
       0.000004907662  1  2  3  4  5  7  8 10 11  1  2  3  4  5  6  7  8
       0.000008173332  1  2  3  4  5  7  8 10 11  1  2  3  4  5  6  7  9
      -0.000009321888  1  2  3  4  5  7  8 10 11  1  2  3  4  5  6  7 10
       0.000006069280  1  2  3  4  5  7  8 10 11  1  2  3  4  5  6  7 11
      -0.000001874498  1  2  3  4  5  7  8 10 11  1  2  3  4  5  6  8  9
       0.000003297007  1  2  3  4  5  7  8 10 11  1  2  3  4  5  6  8 10
       0.000000000000  1  2  3  4  5  7  8 10 11  1  2  3  4  5  6  8 11
       0.000002385301  1  2  3  4  5  7  8 10 11  1  2  3  4  5  6  9 10
       0.000004443008  1  2  3  4  5  7  8 10 11  1  2  3  4  5  6  9 11
      -0.000007149906  1  2  3  4  5  7  8 10 11  1  2  3  4  5  6 10 11
       0.000002808148  1  2  3  4  5  7  8 10 11  1  2  3  4  5  6 12 13
       0.000002808148  1  2  3  4  5  7  8 10 11  1  2  3  4  5  6 14 15
      -0.000001586745  1  2  3  4  5  7  8 10 11  1  2  3  4  5  7  8  9
       0.000002377423  1  2  3  4  5  7  8 10 11  1  2  3  4  5  7  8 10
       0.000001896044  1  2  3  4  5  7  8 10 11  1  2  3  4  5  7  8 11
       0.000000381223  1  2  3  4  5  7  8 10 11  1  2  3  4  5  7  9 10
       0.000004980779  1  2  3  4  5  7  8 10 11  1  2  3  4  5  7  9 11
      -0.000006858834  1  2  3  4  5  7  8 10 11  1  2  3  4  5  7 10 11
       0.000001025805  1  2  3  4  5  7  8 10 11  1  2  3  4  5  7 12 13
       0.000001025805  1  2  3  4  5  7  8 10 11  1  2  3  4  5  7 14 15
       0.000000114433  1  2  3  4  5  7  8 10 11  1  2  3  4  5  8  9 10
      -0.000001467189  1  2  3  4  5  7  8 10 11  1  2  3  4  5  8  9 11
       0.000002430069  1  2  3  4  5  7  8 10 11  1  2  3  4  5  8 10 11
       0.000000196861  1  2  3  4  5  7  8 10 11  1  2  3  4  5  8 12 13
       0.000000196861  1  2  3  4  5  7  8 10 11  1  2  3  4  5  8 14 15
       0.000000865498  1  2  3  4  5  7  8 10 11  1  2  3  4  5  9 10 11
      -0.000000606820  1  2  3  4  5  7  8 10 11  1  2  3  4  5  9 12 13
      -0.000000606820  1  2  3  4  5  7  8 10 11  1  2  3  4  5  9 14 15
       0.000000814319  1  2  3  4  5  7  8 10 11  1  2  3  4  5 10 12 13
       0.000000814319  1  2  3  4  5  7  8 10 11  1  2  3  4  5 10 14 15
       0.000002223486  1  2  3  4  5  7  8 10 11  1  2  3  4  5 11 12 13
       0.000002223486  1  2  3  4  5  7  8 10 11  1  2  3  4  5 11 14 15
       0.000016069841  1  2  3  4  5  7  8 12 13  1  2  3  4  5  6  7  8
      -0.000104813129  1  2  3  4  5  7  8 12 13  1  2  3  4  5  6  7  9
       0.000081566205  1  2  3  4  5  7  8 12 13  1  2  3  4  5  6  7 10
       0.000065049137  1  2  3  4  5  7  8 12 13  1  2  3  4  5  6  7 11
       0.000049722650  1  2  3  4  5  7  8 12 13  1  2  3  4  5  6  8  9
      -0.000036656155  1  2  3  4  5  7  8 12 13  1  2  3  4  5  6  8 10
      -0.000019201512  1  2  3  4  5  7  8 12 13  1  2  3  4  5  6  8 11
      -0.000013126999  1  2  3  4  5  7  8 12 13  1  2  3  4  5  6  9 10
      -0.000044144294  1  2  3  4  5  7  8 12 13  1  2  3  4  5  6  9 11
       0.000024055449  1  2  3  4  5  7  8 12 13  1  2  3  4  5  6 10 11
      -0.000028274686  1  2  3  4  5  7  8 12 13  1  2  3  4  5  6 12 13
      -0.000016172797  1  2  3  4  5  7  8 12 13  1  2  3  4  5  6 14 15
       0.000001796442  1  2  3  4  5  7  8 12 13  1  2  3  4  5  7  8  9
      -0.000002431083  1  2  3  4  5  7  8 12 13  1  2  3  4  5  7  8 10
       0.000001978172  1  2  3  4  5  7  8 12 13  1  2  3  4  5  7  8 11
      -0.000000481243  1  2  3  4  5  7  8 12 13  1  2  3  4  5  7  9 10
      -0.000005974603  1  2  3  4  5  7  8 12 13  1  2  3  4  5  7  9 11
       0.000005111348  1  2  3  4  5  7  8 12 13  1  2  3  4  5  7 10 11
       0.000148214535  1  2  3  4  5  7  8 12 13  1  2  3  4  5  7 12 13
      -0.000133858372  1  2  3  4  5  7  8 12 13  1  2  3  4  5  7 14 15
      -0.000000103257  1  2  3  4  5  7  8 12 13  1  2  3  4  5  8  9 10
       0.000001179995  1  2  3  4  5  7  8 12 13  1  2  3  4  5  8  9 11
      -0.000000326912  1  2  3  4  5  7  8 12 13  1  2  3  4  5  8 10 11
      -0.000086676211  1  2  3  4  5  7  8 12 13  1  2  3  4  5  8 12 13
       0.000093177135  1  2  3  4  5  7  8 12 13  1  2  3  4  5  8 14 15
      -0.000000998184  1  2  3  4  5  7  8 12 13  1  2  3  4  5  9 10 11
      -0.000018952032  1  2  3  4  5  7  8 12 13  1  2  3  4  5  9 12 13
      -0.000013824019  1  2  3  4  5  7  8 12 13  1  2  3  4  5  9 14 15
      -0.000000273568  1  2  3  4  5  7  8 12 13  1  2  3  4  5 10 12 13
       0.000019566554  1  2  3  4  5  7  8 12 13  1  2  3  4  5 10 14 15
      -0.000084440508  1  2  3  4  5  7  8 12 13  1  2  3  4  5 11 12 13
       0.000117756853  1  2  3  4  5  7  8 12 13  1  2  3  4  5 11 14 15
       0.000016069841  1  2  3  4  5  7  8 14 15  1  2  3  4  5  6  7  8
      -0.000104813129  1  2  3  4  5  7  8 14 15  1  2  3  4  5  6  7  9
       0.000081566205  1  2  3  4  5  7  8 14 15  1  2  3  4  5  6  7 10
       0.000065049137  1  2  3  4  5  7  8 14 15  1  2  3  4  5  6  7 11
       0.000049722650  1  2  3  4  5  7  8 14 15  1  2  3  4  5  6  8  9
      -0.000036656155  1  2  3  4  5  7  8 14 15  1  2  3  4  5  6  8 10
      -0.000019201512  1  2  3  4  5  7  8 14 15  1  2  3  4  5  6  8 11
      -0.000013126999  1  2  3  4  5  7  8 14 15  1  2  3  4  5  6  9 10
      -0.000044144294  1  2  3  4  5  7  8 14 15  1  2  3  4  5  6  9 11
       0.000024055449  1  2  3  4  5  7  8 14 15  1  2  3  4  5  6 10 11
      -0.000016172797  1  2  3  4  5  7  8 14 15  1  2  3  4  5  6 12 13
      -0.000028274686  1  2  3  4  5  7  8 14 15  1  2  3  4  5  6 14 15
       0.000001796442  1  2  3  4  5  7  8 14 15  1  2  3  4  5  7  8  9
      -0.000002431083  1  2  3  4  5  7  8 14 15  1  2  3  4  5  7  8 10
       0.000001978172  1  2  3  4  5  7  8 14 15  1  2  3  4  5  7  8 11
      -0.000000481243  1  2  3  4  5  7  8 14 15  1  2  3  4  5  7  9 10
      -0.000005974603  1  2  3  4  5  7  8 14 15  1  2  3  4  5  7  9 11
       0.000005111348  1  2  3  4  5  7  8 14 15  1  2  3  4  5  7 10 11
      -0.000133858372  1  2  3  4  5  7  8 14 15  1  2  3  4  5  7 12 13
       0.000148214535  1  2  3  4  5  7  8 14 15  1  2  3  4  5  7 14 15
      -0.000000103257  1  2  3  4  5  7  8 14 15  1  2  3  4  5  8  9 10
       0.000001179995  1  2  3  4  5  7  8 14 15  1  2  3  4  5  8  9 11
      -0.000000326912  1  2  3  4  5  7  8 14 15  1  2  3  4  5  8 10 11
       0.000093177135  1  2  3  4  5  7  8 14 15  1  2  3  4  5  8 12 13
      -0.000086676211  1  2  3  4  5  7  8 14 15  1  2  3  4  5  8 14 15
      -0.000000998184  1  2  3  4  5  7  8 14 15  1  2  3  4  5  9 10 11
      -0.000013824019  1  2  3  4  5  7  8 14 15  1  2  3  4  5  9 12 13
      -0.000018952032  1  2  3  4  5  7  8 14 15  1  2  3  4  5  9 14 15
       0.000019566554  1  2  3  4  5  7  8 14 15  1  2  3  4  5 10 12 13
      -0.000000273568  1  2  3  4  5  7  8 14 15  1  2  3  4  5 10 14 15
       0.000117756853  1  2  3  4  5  7  8 14 15  1  2  3  4  5 11 12 13
      -0.000084440508  1  2  3  4  5  7  8 14 15  1  2  3  4  5 11 14 15
       0.000001735722  1  2  3  4  5  7  9 10 11  1  2  3  4  5  6  7  8
      -0.000002554892  1  2  3  4  5  7  9 10 11  1  2  3  4  5  6  7  9
       0.000002033172  1  2  3  4  5  7  9 10 11  1  2  3  4  5  6  7 10
       0.000001625936  1  2  3  4  5  7  9 10 11  1  2  3  4  5  6  7 11
      -0.000001038400  1  2  3  4  5  7  9 10 11  1  2  3  4  5  6  8  9
       0.000001998171  1  2  3  4  5  7  9 10 11  1  2  3  4  5  6  8 10
      -0.000000286230  1  2  3  4  5  7  9 10 11  1  2  3  4  5  6  8 11
      -0.000001928975  1  2  3  4  5  7  9 10 11  1  2  3  4  5  6  9 10
       0.000000729909  1  2  3  4  5  7  9 10 11  1  2  3  4  5  6  9 11
      -0.000001450335  1  2  3  4  5  7  9 10 11  1  2  3  4  5  6 10 11
      -0.000001993944  1  2  3  4  5  7  9 10 11  1  2  3  4  5  6 12 13
      -0.000001993944  1  2  3  4  5  7  9 10 11  1  2  3  4  5  6 14 15
      -0.000004386568  1  2  3  4  5  7  9 10 11  1  2  3  4  5  7  8  9
       0.000003795975  1  2  3  4  5  7  9 10 11  1  2  3  4  5  7  8 10
       0.000000910805  1  2  3  4  5  7  9 10 11  1  2  3  4  5  7  8 11
      -0.000002715122  1  2  3  4  5  7  9 10 11  1  2  3  4  5  7  9 10
       0.000005999559  1  2  3  4  5  7  9 10 11  1  2  3  4  5  7  9 11
      -0.000005702050  1  2  3  4  5  7  9 10 11  1  2  3  4  5  7 10 11
       0.000001755775  1  2  3  4  5  7  9 10 11  1  2  3  4  5  7 12 13
       0.000001755775  1  2  3  4  5  7  9 10 11  1  2  3  4  5  7 14 15
       0.000002874766  1  2  3  4  5  7  9 10 11  1  2  3  4  5  8  9 10
      -0.000000439932  1  2  3  4  5  7  9 10 11  1  2  3  4  5  8  9 11
       0.000000853653  1  2  3  4  5  7  9 10 11  1  2  3  4  5  8 10 11
       0.000000765795  1  2  3  4  5  7  9 10 11  1  2  3  4  5  8 12 13
       0.000000765795  1  2  3  4  5  7  9 10 11  1  2  3  4  5  8 14 15
       0.000003724470  1  2  3  4  5  7  9 10 11  1  2  3  4  5  9 10 11
       0.000000361883  1  2  3  4  5  7  9 10 11  1  2  3  4  5  9 12 13
       0.000000361883  1  2  3  4  5  7  9 10 11  1  2  3  4  5  9 14 15
      -0.000001779177  1  2  3  4  5  7  9 10 11  1  2  3  4  5 10 12 13
      -0.000001779177  1  2  3  4  5  7  9 10 11  1  2  3  4  5 10 14 15
       0.000001285040  1  2  3  4  5  7  9 10 11  1  2  3  4  5 11 12 13
       0.000001285040  1  2  3  4  5  7  9 10 11  1  2  3  4  5 11 14 15
       0.000010384248  1  2  3  4  5  7  9 12 13  1  2  3  4  5  6  7  8
      -0.000098852565  1  2  3  4  5  7  9 12 13  1  2  3  4  5  6  7  9
       0.000067558839  1  2  3  4  5  7  9 12 13  1  2  3  4  5  6  7 10
       0.000043193802  1  2  3  4  5  7  9 12 13  1  2  3  4  5  6  7 11
       0.000047082414  1  2  3  4  5  7  9 12 13  1  2  3  4  5  6  8  9
      -0.000033900495  1  2  3  4  5  7  9 12 13  1  2  3  4  5  6  8 10
      -0.000017216360  1  2  3  4  5  7  9 12 13  1  2  3  4  5  6  8 11
      -0.000020104931  1  2  3  4  5  7  9 12 13  1  2  3  4  5  6  9 10
      -0.000046096093  1  2  3  4  5  7  9 12 13  1  2  3  4  5  6  9 11
       0.000029346625  1  2  3  4  5  7  9 12 13  1  2  3  4  5  6 10 11
       0.000135299281  1  2  3  4  5  7  9 12 13  1  2  3  4  5  6 12 13
      -0.000188440019  1  2  3  4  5  7  9 12 13  1  2  3  4  5  6 14 15
      -0.000004914250  1  2  3  4  5  7  9 12 13  1  2  3  4  5  7  8  9
       0.000003350751  1  2  3  4  5  7  9 12 13  1  2  3  4  5  7  8 10
       0.000000668101  1  2  3  4  5  7  9 12 13  1  2  3  4  5  7  8 11
      -0.000005587788  1  2  3  4  5  7  9 12 13  1  2  3  4  5  7  9 10
       0.000002300976  1  2  3  4  5  7  9 12 13  1  2  3  4  5  7  9 11
      -0.000001472207  1  2  3  4  5  7  9 12 13  1  2  3  4  5  7 10 11
       0.000072175893  1  2  3  4  5  7  9 12 13  1  2  3  4  5  7 12 13
      -0.000037894382  1  2  3  4  5  7  9 12 13  1  2  3  4  5  7 14 15
       0.000002448441  1  2  3  4  5  7  9 12 13  1  2  3  4  5  8  9 10
       0.000000378567  1  2  3  4  5  7  9 12 13  1  2  3  4  5  8  9 11
      -0.000000162440  1  2  3  4  5  7  9 12 13  1  2  3  4  5  8 10 11
      -0.000021266423  1  2  3  4  5  7  9 12 13  1  2  3  4  5  8 12 13
      -0.000005382332  1  2  3  4  5  7  9 12 13  1  2  3  4  5  8 14 15
       0.000001564356  1  2  3  4  5  7  9 12 13  1  2  3  4  5  9 10 11
      -0.000069943112  1  2  3  4  5  7  9 12 13  1  2  3  4  5  9 12 13
       0.000071790513  1  2  3  4  5  7  9 12 13  1  2  3  4  5  9 14 15
       0.000022127724  1  2  3  4  5  7  9 12 13  1  2  3  4  5 10 12 13
      -0.000014324185  1  2  3  4  5  7  9 12 13  1  2  3  4  5 10 14 15
      -0.000016111178  1  2  3  4  5  7  9 12 13  1  2  3  4  5 11 12 13
       0.000011488078  1  2  3  4  5  7  9 12 13  1  2  3  4  5 11 14 15
       0.000010384248  1  2  3  4  5  7  9 14 15  1  2  3  4  5  6  7  8
      -0.000098852565  1  2  3  4  5  7  9 14 15  1  2  3  4  5  6  7  9
       0.000067558839  1  2  3  4  5  7  9 14 15  1  2  3  4  5  6  7 10
       0.000043193802  1  2  3  4  5  7  9 14 15  1  2  3  4  5  6  7 11
       0.000047082414  1  2  3  4  5  7  9 14 15  1  2  3  4  5  6  8  9
      -0.000033900495  1  2  3  4  5  7  9 14 15  1  2  3  4  5  6  8 10
      -0.000017216360  1  2  3  4  5  7  9 14 15  1  2  3  4  5  6  8 11
      -0.000020104931  1  2  3  4  5  7  9 14 15  1  2  3  4  5  6  9 10
      -0.000046096093  1  2  3  4  5  7  9 14 15  1  2  3  4  5  6  9 11
       0.000029346625  1  2  3  4  5  7  9 14 15  1  2  3  4  5  6 10 11
      -0.000188440019  1  2  3  4  5  7  9 14 15  1  2  3  4  5  6 12 13
       0.000135299281  1  2  3  4  5  7  9 14 15  1  2  3  4  5  6 14 15
      -0.000004914250  1  2  3  4  5  7  9 14 15  1  2  3  4  5  7  8  9
       0.000003350751  1  2  3  4  5  7  9 14 15  1  2  3  4  5  7  8 10
       0.000000668101  1  2  3  4  5  7  9 14 15  1  2  3  4  5  7  8 11
      -0.000005587788  1  2  3  4  5  7  9 14 15  1  2  3  4  5  7  9 10
       0.000002300976  1  2  3  4  5  7  9 14 15  1  2  3  4  5  7  9 11
      -0.000001472207  1  2  3  4  5  7  9 14 15  1  2  3  4  5  7 10 11
      -0.000037894382  1  2  3  4  5  7  9 14 15  1  2  3  4  5  7 12 13
       0.000072175893  1  2  3  4  5  7  9 14 15  1  2  3  4  5  7 14 15
       0.000002448441  1  2  3  4  5  7  9 14 15  1  2  3  4  5  8  9 10
       0.000000378567  1  2  3  4  5  7  9 14 15  1  2  3  4  5  8  9 11
      -0.000000162440  1  2  3  4  5  7  9 14 15  1  2  3  4  5  8 10 11
      -0.000005382332  1  2  3  4  5  7  9 14 15  1  2  3  4  5  8 12 13
      -0.000021266423  1  2  3  4  5  7  9 14 15  1  2  3  4  5  8 14 15
       0.000001564356  1  2  3  4  5  7  9 14 15  1  2  3  4  5  9 10 11
       0.000071790513  1  2  3  4  5  7  9 14 15  1  2  3  4  5  9 12 13
      -0.000069943112  1  2  3  4  5  7  9 14 15  1  2  3  4  5  9 14 15
      -0.000014324185  1  2  3  4  5  7  9 14 15  1  2  3  4  5 10 12 13
       0.000022127724  1  2  3  4  5  7  9 14 15  1  2  3  4  5 10 14 15
       0.000011488078  1  2  3  4  5  7  9 14 15  1  2  3  4  5 11 12 13
      -0.000016111178  1  2  3  4  5  7  9 14 15  1  2  3  4  5 11 14 15
       0.000030414513  1  2  3  4  5  7 10 12 13  1  2  3  4  5  6  7  8
       0.000040903779  1  2  3  4  5  7 10 12 13  1  2  3  4  5  6  7  9
      -0.000070826293  1  2  3  4  5  7 10 12 13  1  2  3  4  5  6  7 10
[...]
      -0.000085596584  1  2  3  4  5  9 10 12 15  1  2  3  4  5 10 12 14
       0.000045715914  1  2  3  4  5  9 10 12 15  1  2  3  4  5 10 12 15
       0.000034316906  1  2  3  4  5  9 10 12 15  1  2  3  4  5 10 13 14
       0.000003050453  1  2  3  4  5  9 10 12 15  1  2  3  4  5 10 13 15
      -0.000015403585  1  2  3  4  5  9 10 12 15  1  2  3  4  5 11 12 14
       0.000001095042  1  2  3  4  5  9 10 12 15  1  2  3  4  5 11 12 15
       0.000003435915  1  2  3  4  5  9 10 12 15  1  2  3  4  5 11 13 14
       0.000002728300  1  2  3  4  5  9 10 12 15  1  2  3  4  5 11 13 15
      -0.000556655929  1  2  3  4  5  9 10 13 14  1  2  3  4  5  6 12 14
      -0.000376748748  1  2  3  4  5  9 10 13 14  1  2  3  4  5  6 12 15
      -0.000396637384  1  2  3  4  5  9 10 13 14  1  2  3  4  5  6 13 14
       0.000158513847  1  2  3  4  5  9 10 13 14  1  2  3  4  5  6 13 15
      -0.000057370752  1  2  3  4  5  9 10 13 14  1  2  3  4  5  7 12 14
       0.000015585991  1  2  3  4  5  9 10 13 14  1  2  3  4  5  7 12 15
       0.000015116900  1  2  3  4  5  9 10 13 14  1  2  3  4  5  7 13 14
       0.000006690457  1  2  3  4  5  9 10 13 14  1  2  3  4  5  7 13 15
      -0.000043059268  1  2  3  4  5  9 10 13 14  1  2  3  4  5  8 12 14
       0.000026580214  1  2  3  4  5  9 10 13 14  1  2  3  4  5  8 12 15
       0.000028233070  1  2  3  4  5  9 10 13 14  1  2  3  4  5  8 13 14
       0.000000948962  1  2  3  4  5  9 10 13 14  1  2  3  4  5  8 13 15
       0.000224413185  1  2  3  4  5  9 10 13 14  1  2  3  4  5  9 12 14
      -0.000092058631  1  2  3  4  5  9 10 13 14  1  2  3  4  5  9 12 15
      -0.000112341670  1  2  3  4  5  9 10 13 14  1  2  3  4  5  9 13 14
      -0.000011490174  1  2  3  4  5  9 10 13 14  1  2  3  4  5  9 13 15
      -0.000085596584  1  2  3  4  5  9 10 13 14  1  2  3  4  5 10 12 14
       0.000034316906  1  2  3  4  5  9 10 13 14  1  2  3  4  5 10 12 15
       0.000045715914  1  2  3  4  5  9 10 13 14  1  2  3  4  5 10 13 14
       0.000003050453  1  2  3  4  5  9 10 13 14  1  2  3  4  5 10 13 15
      -0.000015403585  1  2  3  4  5  9 10 13 14  1  2  3  4  5 11 12 14
       0.000003435915  1  2  3  4  5  9 10 13 14  1  2  3  4  5 11 12 15
       0.000001095042  1  2  3  4  5  9 10 13 14  1  2  3  4  5 11 13 14
       0.000002728300  1  2  3  4  5  9 10 13 14  1  2  3  4  5 11 13 15
      -0.000276454401  1  2  3  4  5  9 10 13 15  1  2  3  4  5  6 12 14
       0.000133843648  1  2  3  4  5  9 10 13 15  1  2  3  4  5  6 12 15
       0.000133843648  1  2  3  4  5  9 10 13 15  1  2  3  4  5  6 13 14
       0.000013270980  1  2  3  4  5  9 10 13 15  1  2  3  4  5  6 13 15
      -0.000003657377  1  2  3  4  5  9 10 13 15  1  2  3  4  5  7 12 14
       0.000001887336  1  2  3  4  5  9 10 13 15  1  2  3  4  5  7 12 15
       0.000001887336  1  2  3  4  5  9 10 13 15  1  2  3  4  5  7 13 14
      -0.000002637075  1  2  3  4  5  9 10 13 15  1  2  3  4  5  7 13 15
       0.000027936565  1  2  3  4  5  9 10 13 15  1  2  3  4  5  8 12 14
       0.000000555059  1  2  3  4  5  9 10 13 15  1  2  3  4  5  8 12 15
       0.000000555059  1  2  3  4  5  9 10 13 15  1  2  3  4  5  8 13 14
      -0.000004785145  1  2  3  4  5  9 10 13 15  1  2  3  4  5  8 13 15
      -0.000073560405  1  2  3  4  5  9 10 13 15  1  2  3  4  5  9 12 14
      -0.000006405101  1  2  3  4  5  9 10 13 15  1  2  3  4  5  9 12 15
      -0.000006405101  1  2  3  4  5  9 10 13 15  1  2  3  4  5  9 13 14
       0.000015840134  1  2  3  4  5  9 10 13 15  1  2  3  4  5  9 13 15
       0.000030317795  1  2  3  4  5  9 10 13 15  1  2  3  4  5 10 12 14
       0.000003108971  1  2  3  4  5  9 10 13 15  1  2  3  4  5 10 12 15
       0.000003108971  1  2  3  4  5  9 10 13 15  1  2  3  4  5 10 13 14
      -0.000006459226  1  2  3  4  5  9 10 13 15  1  2  3  4  5 10 13 15
       0.000010966433  1  2  3  4  5  9 10 13 15  1  2  3  4  5 11 12 14
       0.000003691020  1  2  3  4  5  9 10 13 15  1  2  3  4  5 11 12 15
       0.000003691020  1  2  3  4  5  9 10 13 15  1  2  3  4  5 11 13 14
      -0.000003128096  1  2  3  4  5  9 10 13 15  1  2  3  4  5 11 13 15
       0.002007004049  1  2  3  4  5  9 11 12 14  1  2  3  4  5  6 12 14
      -0.000036681108  1  2  3  4  5  9 11 12 14  1  2  3  4  5  6 12 15
      -0.000036681108  1  2  3  4  5  9 11 12 14  1  2  3  4  5  6 13 14
      -0.000001836823  1  2  3  4  5  9 11 12 14  1  2  3  4  5  6 13 15
      -0.000225621062  1  2  3  4  5  9 11 12 14  1  2  3  4  5  7 12 14
      -0.000472784473  1  2  3  4  5  9 11 12 14  1  2  3  4  5  7 12 15
      -0.000472784473  1  2  3  4  5  9 11 12 14  1  2  3  4  5  7 13 14
       0.000037011815  1  2  3  4  5  9 11 12 14  1  2  3  4  5  7 13 15
      -0.000014490893  1  2  3  4  5  9 11 12 14  1  2  3  4  5  8 12 14
       0.000061194570  1  2  3  4  5  9 11 12 14  1  2  3  4  5  8 12 15
       0.000061194570  1  2  3  4  5  9 11 12 14  1  2  3  4  5  8 13 14
      -0.000002815975  1  2  3  4  5  9 11 12 14  1  2  3  4  5  8 13 15
       0.000117646348  1  2  3  4  5  9 11 12 14  1  2  3  4  5  9 12 14
       0.000091226340  1  2  3  4  5  9 11 12 14  1  2  3  4  5  9 12 15
       0.000091226340  1  2  3  4  5  9 11 12 14  1  2  3  4  5  9 13 14
      -0.000011898253  1  2  3  4  5  9 11 12 14  1  2  3  4  5  9 13 15
      -0.000142322859  1  2  3  4  5  9 11 12 14  1  2  3  4  5 10 12 14
       0.000039239904  1  2  3  4  5  9 11 12 14  1  2  3  4  5 10 12 15
       0.000039239904  1  2  3  4  5  9 11 12 14  1  2  3  4  5 10 13 14
       0.000009422201  1  2  3  4  5  9 11 12 14  1  2  3  4  5 10 13 15
       0.000015554427  1  2  3  4  5  9 11 12 14  1  2  3  4  5 11 12 14
       0.000104769355  1  2  3  4  5  9 11 12 14  1  2  3  4  5 11 12 15
       0.000104769355  1  2  3  4  5  9 11 12 14  1  2  3  4  5 11 13 14
      -0.000004706796  1  2  3  4  5  9 11 12 14  1  2  3  4  5 11 13 15
      -0.000042003802  1  2  3  4  5  9 11 12 15  1  2  3  4  5  6 12 14
      -0.000032251211  1  2  3  4  5  9 11 12 15  1  2  3  4  5  6 12 15
      -0.000009859891  1  2  3  4  5  9 11 12 15  1  2  3  4  5  6 13 14
       0.000003249462  1  2  3  4  5  9 11 12 15  1  2  3  4  5  6 13 15
      -0.000220627053  1  2  3  4  5  9 11 12 15  1  2  3  4  5  7 12 14
       0.000048767742  1  2  3  4  5  9 11 12 15  1  2  3  4  5  7 12 15
       0.000040782832  1  2  3  4  5  9 11 12 15  1  2  3  4  5  7 13 14
       0.000024336221  1  2  3  4  5  9 11 12 15  1  2  3  4  5  7 13 15
       0.000012212297  1  2  3  4  5  9 11 12 15  1  2  3  4  5  8 12 14
      -0.000002448565  1  2  3  4  5  9 11 12 15  1  2  3  4  5  8 12 15
      -0.000004062324  1  2  3  4  5  9 11 12 15  1  2  3  4  5  8 13 14
      -0.000003510918  1  2  3  4  5  9 11 12 15  1  2  3  4  5  8 13 15
       0.000022166285  1  2  3  4  5  9 11 12 15  1  2  3  4  5  9 12 14
      -0.000018497407  1  2  3  4  5  9 11 12 15  1  2  3  4  5  9 12 15
      -0.000012778631  1  2  3  4  5  9 11 12 15  1  2  3  4  5  9 13 14
      -0.000001550986  1  2  3  4  5  9 11 12 15  1  2  3  4  5  9 13 15
       0.000025455887  1  2  3  4  5  9 11 12 15  1  2  3  4  5 10 12 14
       0.000013016508  1  2  3  4  5  9 11 12 15  1  2  3  4  5 10 12 15
       0.000009752935  1  2  3  4  5  9 11 12 15  1  2  3  4  5 10 13 14
      -0.000006031748  1  2  3  4  5  9 11 12 15  1  2  3  4  5 10 13 15
       0.000016587020  1  2  3  4  5  9 11 12 15  1  2  3  4  5 11 12 14
      -0.000008025417  1  2  3  4  5  9 11 12 15  1  2  3  4  5 11 12 15
      -0.000007306116  1  2  3  4  5  9 11 12 15  1  2  3  4  5 11 13 14
      -0.000006052847  1  2  3  4  5  9 11 12 15  1  2  3  4  5 11 13 15
      -0.000042003802  1  2  3  4  5  9 11 13 14  1  2  3  4  5  6 12 14
      -0.000009859891  1  2  3  4  5  9 11 13 14  1  2  3  4  5  6 12 15
      -0.000032251211  1  2  3  4  5  9 11 13 14  1  2  3  4  5  6 13 14
       0.000003249462  1  2  3  4  5  9 11 13 14  1  2  3  4  5  6 13 15
      -0.000220627053  1  2  3  4  5  9 11 13 14  1  2  3  4  5  7 12 14
       0.000040782832  1  2  3  4  5  9 11 13 14  1  2  3  4  5  7 12 15
       0.000048767742  1  2  3  4  5  9 11 13 14  1  2  3  4  5  7 13 14
       0.000024336221  1  2  3  4  5  9 11 13 14  1  2  3  4  5  7 13 15
       0.000012212297  1  2  3  4  5  9 11 13 14  1  2  3  4  5  8 12 14
      -0.000004062324  1  2  3  4  5  9 11 13 14  1  2  3  4  5  8 12 15
      -0.000002448565  1  2  3  4  5  9 11 13 14  1  2  3  4  5  8 13 14
      -0.000003510918  1  2  3  4  5  9 11 13 14  1  2  3  4  5  8 13 15
       0.000022166285  1  2  3  4  5  9 11 13 14  1  2  3  4  5  9 12 14
      -0.000012778631  1  2  3  4  5  9 11 13 14  1  2  3  4  5  9 12 15
      -0.000018497407  1  2  3  4  5  9 11 13 14  1  2  3  4  5  9 13 14
      -0.000001550986  1  2  3  4  5  9 11 13 14  1  2  3  4  5  9 13 15
       0.000025455887  1  2  3  4  5  9 11 13 14  1  2  3  4  5 10 12 14
       0.000009752935  1  2  3  4  5  9 11 13 14  1  2  3  4  5 10 12 15
       0.000013016508  1  2  3  4  5  9 11 13 14  1  2  3  4  5 10 13 14
      -0.000006031748  1  2  3  4  5  9 11 13 14  1  2  3  4  5 10 13 15
       0.000016587020  1  2  3  4  5  9 11 13 14  1  2  3  4  5 11 12 14
      -0.000007306116  1  2  3  4  5  9 11 13 14  1  2  3  4  5 11 12 15
      -0.000008025417  1  2  3  4  5  9 11 13 14  1  2  3  4  5 11 13 14
      -0.000006052847  1  2  3  4  5  9 11 13 14  1  2  3  4  5 11 13 15
       0.000014517221  1  2  3  4  5  9 11 13 15  1  2  3  4  5  6 12 14
       0.000000250780  1  2  3  4  5  9 11 13 15  1  2  3  4  5  6 12 15
       0.000000250780  1  2  3  4  5  9 11 13 15  1  2  3  4  5  6 13 14
      -0.000001887598  1  2  3  4  5  9 11 13 15  1  2  3  4  5  6 13 15
       0.000029704683  1  2  3  4  5  9 11 13 15  1  2  3  4  5  7 12 14
       0.000015149679  1  2  3  4  5  9 11 13 15  1  2  3  4  5  7 12 15
       0.000015149679  1  2  3  4  5  9 11 13 15  1  2  3  4  5  7 13 14
      -0.000008234628  1  2  3  4  5  9 11 13 15  1  2  3  4  5  7 13 15
      -0.000004469925  1  2  3  4  5  9 11 13 15  1  2  3  4  5  8 12 14
      -0.000001578682  1  2  3  4  5  9 11 13 15  1  2  3  4  5  8 12 15
      -0.000001578682  1  2  3  4  5  9 11 13 15  1  2  3  4  5  8 13 14
       0.000000918404  1  2  3  4  5  9 11 13 15  1  2  3  4  5  8 13 15
      -0.000005546067  1  2  3  4  5  9 11 13 15  1  2  3  4  5  9 12 14
       0.000000842583  1  2  3  4  5  9 11 13 15  1  2  3  4  5  9 12 15
       0.000000842583  1  2  3  4  5  9 11 13 15  1  2  3  4  5  9 13 14
       0.000001209137  1  2  3  4  5  9 11 13 15  1  2  3  4  5  9 13 15
       0.000006616343  1  2  3  4  5  9 11 13 15  1  2  3  4  5 10 12 14
      -0.000005479640  1  2  3  4  5  9 11 13 15  1  2  3  4  5 10 12 15
      -0.000005479640  1  2  3  4  5  9 11 13 15  1  2  3  4  5 10 13 14
       0.000000117022  1  2  3  4  5  9 11 13 15  1  2  3  4  5 10 13 15
      -0.000005612394  1  2  3  4  5  9 11 13 15  1  2  3  4  5 11 12 14
      -0.000002590839  1  2  3  4  5  9 11 13 15  1  2  3  4  5 11 12 15
      -0.000002590839  1  2  3  4  5  9 11 13 15  1  2  3  4  5 11 13 14
       0.000001808165  1  2  3  4  5  9 11 13 15  1  2  3  4  5 11 13 15
       0.004614874131  1  2  3  4  5 10 11 12 14  1  2  3  4  5  6 12 14
       0.000137928855  1  2  3  4  5 10 11 12 14  1  2  3  4  5  6 12 15
       0.000137928855  1  2  3  4  5 10 11 12 14  1  2  3  4  5  6 13 14
      -0.000467571664  1  2  3  4  5 10 11 12 14  1  2  3  4  5  6 13 15
      -0.000260406878  1  2  3  4  5 10 11 12 14  1  2  3  4  5  7 12 14
       0.000713865718  1  2  3  4  5 10 11 12 14  1  2  3  4  5  7 12 15
       0.000713865718  1  2  3  4  5 10 11 12 14  1  2  3  4  5  7 13 14
      -0.000031066001  1  2  3  4  5 10 11 12 14  1  2  3  4  5  7 13 15
      -0.000233324412  1  2  3  4  5 10 11 12 14  1  2  3  4  5  8 12 14
      -0.000380802335  1  2  3  4  5 10 11 12 14  1  2  3  4  5  8 12 15
      -0.000380802335  1  2  3  4  5 10 11 12 14  1  2  3  4  5  8 13 14
       0.000030135838  1  2  3  4  5 10 11 12 14  1  2  3  4  5  8 13 15
      -0.000376613383  1  2  3  4  5 10 11 12 14  1  2  3  4  5  9 12 14
       0.000011657801  1  2  3  4  5 10 11 12 14  1  2  3  4  5  9 12 15
       0.000011657801  1  2  3  4  5 10 11 12 14  1  2  3  4  5  9 13 14
      -0.000001255851  1  2  3  4  5 10 11 12 14  1  2  3  4  5  9 13 15
       0.000556897979  1  2  3  4  5 10 11 12 14  1  2  3  4  5 10 12 14
      -0.000104038479  1  2  3  4  5 10 11 12 14  1  2  3  4  5 10 12 15
      -0.000104038479  1  2  3  4  5 10 11 12 14  1  2  3  4  5 10 13 14
      -0.000009809413  1  2  3  4  5 10 11 12 14  1  2  3  4  5 10 13 15
      -0.000444848812  1  2  3  4  5 10 11 12 14  1  2  3  4  5 11 12 14
      -0.000576698002  1  2  3  4  5 10 11 12 14  1  2  3  4  5 11 12 15
      -0.000576698002  1  2  3  4  5 10 11 12 14  1  2  3  4  5 11 13 14
       0.000038840931  1  2  3  4  5 10 11 12 14  1  2  3  4  5 11 13 15
       0.000110330396  1  2  3  4  5 10 11 12 15  1  2  3  4  5  6 12 14
      -0.000342991582  1  2  3  4  5 10 11 12 15  1  2  3  4  5  6 12 15
      -0.000304427908  1  2  3  4  5 10 11 12 15  1  2  3  4  5  6 13 14
       0.000058227207  1  2  3  4  5 10 11 12 15  1  2  3  4  5  6 13 15
       0.000443496198  1  2  3  4  5 10 11 12 15  1  2  3  4  5  7 12 14
      -0.000053897523  1  2  3  4  5 10 11 12 15  1  2  3  4  5  7 12 15
      -0.000041359052  1  2  3  4  5 10 11 12 15  1  2  3  4  5  7 13 14
      -0.000046250035  1  2  3  4  5 10 11 12 15  1  2  3  4  5  7 13 15
      -0.000263993703  1  2  3  4  5 10 11 12 15  1  2  3  4  5  8 12 14
       0.000053110811  1  2  3  4  5 10 11 12 15  1  2  3  4  5  8 12 15
       0.000038105647  1  2  3  4  5 10 11 12 15  1  2  3  4  5  8 13 14
       0.000026504881  1  2  3  4  5 10 11 12 15  1  2  3  4  5  8 13 15
       0.000035555405  1  2  3  4  5 10 11 12 15  1  2  3  4  5  9 12 14
       0.000011875119  1  2  3  4  5 10 11 12 15  1  2  3  4  5  9 12 15
       0.000007511164  1  2  3  4  5 10 11 12 15  1  2  3  4  5  9 13 14
      -0.000009193831  1  2  3  4  5 10 11 12 15  1  2  3  4  5  9 13 15
      -0.000080080932  1  2  3  4  5 10 11 12 15  1  2  3  4  5 10 12 14
      -0.000022851140  1  2  3  4  5 10 11 12 15  1  2  3  4  5 10 12 15
      -0.000016259894  1  2  3  4  5 10 11 12 15  1  2  3  4  5 10 13 14
       0.000014327977  1  2  3  4  5 10 11 12 15  1  2  3  4  5 10 13 15
      -0.000389765986  1  2  3  4  5 10 11 12 15  1  2  3  4  5 11 12 14
       0.000076654389  1  2  3  4  5 10 11 12 15  1  2  3  4  5 11 12 15
       0.000054164773  1  2  3  4  5 10 11 12 15  1  2  3  4  5 11 13 14
       0.000039414005  1  2  3  4  5 10 11 12 15  1  2  3  4  5 11 13 15
       0.000110330396  1  2  3  4  5 10 11 13 14  1  2  3  4  5  6 12 14
      -0.000304427908  1  2  3  4  5 10 11 13 14  1  2  3  4  5  6 12 15
      -0.000342991582  1  2  3  4  5 10 11 13 14  1  2  3  4  5  6 13 14
       0.000058227207  1  2  3  4  5 10 11 13 14  1  2  3  4  5  6 13 15
       0.000443496198  1  2  3  4  5 10 11 13 14  1  2  3  4  5  7 12 14
      -0.000041359052  1  2  3  4  5 10 11 13 14  1  2  3  4  5  7 12 15
      -0.000053897523  1  2  3  4  5 10 11 13 14  1  2  3  4  5  7 13 14
      -0.000046250035  1  2  3  4  5 10 11 13 14  1  2  3  4  5  7 13 15
      -0.000263993703  1  2  3  4  5 10 11 13 14  1  2  3  4  5  8 12 14
       0.000038105647  1  2  3  4  5 10 11 13 14  1  2  3  4  5  8 12 15
       0.000053110811  1  2  3  4  5 10 11 13 14  1  2  3  4  5  8 13 14
       0.000026504881  1  2  3  4  5 10 11 13 14  1  2  3  4  5  8 13 15
       0.000035555405  1  2  3  4  5 10 11 13 14  1  2  3  4  5  9 12 14
       0.000007511164  1  2  3  4  5 10 11 13 14  1  2  3  4  5  9 12 15
       0.000011875119  1  2  3  4  5 10 11 13 14  1  2  3  4  5  9 13 14
      -0.000009193831  1  2  3  4  5 10 11 13 14  1  2  3  4  5  9 13 15
      -0.000080080932  1  2  3  4  5 10 11 13 14  1  2  3  4  5 10 12 14
      -0.000016259894  1  2  3  4  5 10 11 13 14  1  2  3  4  5 10 12 15
      -0.000022851140  1  2  3  4  5 10 11 13 14  1  2  3  4  5 10 13 14
       0.000014327977  1  2  3  4  5 10 11 13 14  1  2  3  4  5 10 13 15
      -0.000389765986  1  2  3  4  5 10 11 13 14  1  2  3  4  5 11 12 14
       0.000054164773  1  2  3  4  5 10 11 13 14  1  2  3  4  5 11 12 15
       0.000076654389  1  2  3  4  5 10 11 13 14  1  2  3  4  5 11 13 14
       0.000039414005  1  2  3  4  5 10 11 13 14  1  2  3  4  5 11 13 15
      -0.000164411739  1  2  3  4  5 10 11 13 15  1  2  3  4  5  6 12 14
       0.000034494180  1  2  3  4  5 10 11 13 15  1  2  3  4  5  6 12 15
       0.000034494180  1  2  3  4  5 10 11 13 15  1  2  3  4  5  6 13 14
       0.000029718750  1  2  3  4  5 10 11 13 15  1  2  3  4  5  6 13 15
      -0.000028086013  1  2  3  4  5 10 11 13 15  1  2  3  4  5  7 12 14
      -0.000036590531  1  2  3  4  5 10 11 13 15  1  2  3  4  5  7 12 15
      -0.000036590531  1  2  3  4  5 10 11 13 15  1  2  3  4  5  7 13 14
       0.000013794888  1  2  3  4  5 10 11 13 15  1  2  3  4  5  7 13 15
       0.000027788852  1  2  3  4  5 10 11 13 15  1  2  3  4  5  8 12 14
       0.000020930214  1  2  3  4  5 10 11 13 15  1  2  3  4  5  8 12 15
       0.000020930214  1  2  3  4  5 10 11 13 15  1  2  3  4  5  8 13 14
      -0.000010875973  1  2  3  4  5 10 11 13 15  1  2  3  4  5  8 13 15
       0.000008869947  1  2  3  4  5 10 11 13 15  1  2  3  4  5  9 12 14
      -0.000008699126  1  2  3  4  5 10 11 13 15  1  2  3  4  5  9 12 15
      -0.000008699126  1  2  3  4  5 10 11 13 15  1  2  3  4  5  9 13 14
       0.000003235679  1  2  3  4  5 10 11 13 15  1  2  3  4  5  9 13 15
      -0.000015637499  1  2  3  4  5 10 11 13 15  1  2  3  4  5 10 12 14
       0.000013234511  1  2  3  4  5 10 11 13 15  1  2  3  4  5 10 12 15
       0.000013234511  1  2  3  4  5 10 11 13 15  1  2  3  4  5 10 13 14
      -0.000001924698  1  2  3  4  5 10 11 13 15  1  2  3  4  5 10 13 15
       0.000040518899  1  2  3  4  5 10 11 13 15  1  2  3  4  5 11 12 14
       0.000030615124  1  2  3  4  5 10 11 13 15  1  2  3  4  5 11 12 15
       0.000030615124  1  2  3  4  5 10 11 13 15  1  2  3  4  5 11 13 14
      -0.000014879505  1  2  3  4  5 10 11 13 15  1  2  3  4  5 11 13 15
 /EOF
 !FCI STATE  1.1 Dipole moment          0.00000000     0.00000000    -0.27083926
 Dipole moment /Debye                   0.00000000     0.00000000    -0.68835965


 **********************************************************************************************************************************
 DATASETS  * FILE   NREC   LENGTH (MB)   RECORD NAMES
              1      19       29.97       500      700      610      900      950      970     1000      129      960     1100   
                                          VAR     GEOM    BASINP   SYMINP    ZMAT    AOBASIS   BASIS     P2S    ABASIS      S 
                                         1400     1410     1200     1210     1080     1600     1650     1300     1700   
                                           T        V       H0       H01     AOSYM     SMH    MOLCAS    ERIS     OPER   

              3       5       14.77       500      610      700     1000     2100   
                                          VAR    BASINP    GEOM     BASIS     RHF  

 PROGRAMS   *        TOTAL       FCI       INT   RESTART
 CPU TIMES  *         0.42      0.08      0.24      0.01
 REAL TIME  *         0.98 SEC
 DISK USED  *        49.44 MB
 **********************************************************************************************************************************
 Molecular orbitals read from record     2100.3  Type=RHF/CANONICAL (state 1.1)
 Occupation numbers read from record     2100.3  Type=RHF/RHF (state 1.1)
 Orbital energies read from record       2100.3  Type=RHF/CANONICAL (state 1.1)
 Redundancy group numbers read from rec  2100.3  Type=RHF/RHF (state 1.1)

 FCI/6-31G energy=   -459.000064121128

             FCI
   -459.00006412
 **********************************************************************************************************************************
 Molpro calculation terminated
