
 Primary working directories    : /scr/yuriaoto/job.023459/molpro.y2iwrWdlJU
 Secondary working directories  : /scr/yuriaoto/job.023459/molpro.y2iwrWdlJU
 Wavefunction directory         : /scr/yuriaoto/job.023459/
 Main file repository           : /scr/yuriaoto/job.023459/molpro.y2iwrWdlJU/

 id        : yuriaoto

 Nodes             nprocs
 t-rex.ufabc.int.br    1

 Using customized tuning parameters: mindgm=8; mindgv=16; mindgc=1; mindgr=1; noblas=0; minvec=7
 default implementation of scratch files=df  


 Variables initialized (933), CPU time= 0.00 sec
 ***,
 memory,40,m
 gprint,orbital,basis,civector
 gthresh,thrprint=0,printci=0.0
 file,3,wfu.dat,old
 
 {cisd,CC_NORM_MAX=10.0
 thresh,printci=0.0,ENERGY=1.0E-10,COEFF=1.0E-12
 print,ref=1
 core,0
 wf,6,1,0;
 }
 
 Commands  initialized (760), CPU time= 0.01 sec, 617 directives.
 Default parameters read. Elapsed time= 0.04 sec

 Checking input...
 Passed
1


                                         ***  PROGRAM SYSTEM MOLPRO  ***
                                       Copyright, TTI GmbH Stuttgart, 2015
                                    Version 2019.2 linked Abr  7 2019 15:10:35


 **********************************************************************************************************************************
 LABEL *                                                                                 
  64 bit serial version                                                                  DATE: 02-Jun-20          TIME: 00:46:03  
 **********************************************************************************************************************************

 SHA1:             3a8a58c585c929645742fb5a1b7541a4ad1da699
 **********************************************************************************************************************************


 THRESHOLDS:

 ZERO    =  1.00D-12  ONEINT  =  1.00D-12  TWOINT  =  1.00D-11  PREFAC  =  1.00D-14  XXXXXX  =  1.00D-09  EORDER  =  1.00D-04
 ENERGY  =  0.00D+00  ETEST   =  0.00D+00  EDENS   =  0.00D+00  THRDEDEF=  1.00D-06  GRADIENT=  1.00D-02  STEP    =  1.00D-03
 ORBITAL =  1.00D-05  CIVEC   =  1.00D-05  COEFF   =  1.00D-04  PRINTCI =  0.00D+00  PUNCHCI =  9.90D+01  OPTGRAD =  3.00D-04
 OPTENERG=  1.00D-06  OPTSTEP =  3.00D-04  THRGRAD =  1.00D-10  COMPRESS=  1.00D-11  VARMIN  =  1.00D-07  VARMAX  =  1.00D-03
 THRDOUB =  0.00D+00  THRDIV  =  1.00D-05  THRRED  =  1.00D-07  THRPSP  =  1.00D+00  THRDC   =  1.00D-10  THRCS   =  1.00D-10
 THRNRM  =  1.00D-08  THREQ   =  0.00D+00  THRDE   =  1.00D+00  THRREF  =  1.00D-05  SPARFAC =  1.00D+00  THRDLP  =  1.00D-07
 THRDIA  =  1.00D-10  THRDLS  =  1.00D-07  THRGPS  =  0.00D+00  THRKEX  =  0.00D+00  THRDIS  =  2.00D-01  THRVAR  =  1.00D-10
 THRLOC  =  1.00D-06  THRGAP  =  1.00D-06  THRLOCT = -1.00D+00  THRGAPT = -1.00D+00  THRORB  =  1.00D-06  THRMLTP =  0.00D+00
 THRCPQCI=  1.00D-10  KEXTA   =  0.00D+00  THRCOARS=  0.00D+00  SYMTOL  =  1.00D-06  GRADTOL =  1.00D-06  THROVL  =  1.00D-08
 THRORTH =  1.00D-08  GRID    =  1.00D-06  GRIDMAX =  1.00D-03  DTMAX   =  0.00D+00  THROCCDE=  1.00D-01  THROCCDE=  1.00D-01
 THRPRINT=  0.00D+00


 Variable memory set to   40000000 words,  buffer space 



 Permanent file  3  wfu.dat  assigned.  Implementation=df    Size= 14.08 MB


 PROGRAM * RESTART 


 Reading variables from file 3

 _FNUC           =      0.00000000
 _BASIS          =    STO-3G
 _NELEC          =      6.00000000
 _PROGRAM        =    RHF-SCF
 _DMZ            =     -0.00000000
 _DMX_SCF        =      0.00000000
 _DMY_SCF        =      0.00000000
 _DMZ_SCF        =     -0.00000000
 _HOMO           =      3.10000000
 _EHOMO          =     -0.15007102
 _LUMO           =      4.10000000
 _ELUMO          =      0.08336193
 _ENERGY         =    -14.63864283
 _ENERGY_METHOD  =    RHF
 _ENERGY_BASIS   =    STO-3G
 _ENUC           =      1.80000000
 _EPS1(1:6)      =     -2.32975138    -2.32973347    -0.15007102     0.08336193     0.15828123     0.47434817
 _EPS2(1:2)      =      0.13305715     0.24181392
 _EPS3(1:2)      =      0.13305715     0.24181392
 _IPROC_MPP      =      0.00000000
 _IPROC_MPPX     =      0.00000000
 _ORBITAL        =   2100.30000000
 _STATUS         =      1.00000000
 _DATE           =    21-Oct-19
 _LASTORB        =    RHF
 _OUTPUT         =    /scr/yuriaoto/job.022398/RHF.xml
 _PGROUP         =    C2v 
 _TIME           =    10:12:38
 R               =      5.00000000

 Geometry written to block  1 of record 700


 **********************************************************************************************************************************
 DATASETS  * FILE   NREC   LENGTH (MB)   RECORD NAMES
              3       5       14.77       500      610      700     1000     2100   
                                          VAR    BASINP    GEOM     BASIS     RHF  

 PROGRAMS   *        TOTAL   RESTART
 CPU TIMES  *         0.12      0.01
 REAL TIME  *         0.15 SEC
 DISK USED  *        26.84 MB
 **********************************************************************************************************************************


 Recomputing integrals since basis changed


 Using spherical harmonics

 Library entry LI     S STO-3G               selected for orbital group  1
 Library entry LI     P STO-3G               selected for orbital group  1


 PROGRAM * SEWARD (Integral evaluation for generally contracted gaussian basis sets)     Author: Roland Lindh, 1990

 Geometry written to block  1 of record 700

 Orientation using atomic masses  
 Molecule type: Linear
 User-specified symmetry elements: X,Y
 Symmetry elements: X,Y
 Rotational constants:      20.8009354     20.8009354      0.0000000 GHz  (calculated with average atomic masses)

 Point group  C2v 



 ATOMIC COORDINATES

 NR  ATOM    CHARGE       X              Y              Z

   1  LI1     3.00    0.000000000    0.000000000   -2.500000000
   2  LI2     3.00    0.000000000    0.000000000    2.500000000

 Bond lengths in Bohr (Angstrom)

 1-2  5.000000000
     ( 2.645886055)


 BASIS DATA

   Nr Sym  Nuc  Type         Exponents   Contraction coefficients

    1.1 A1    1  1s          16.119575     0.154329
                              2.936201     0.535328
                              0.794651     0.444635
    2.1 A1    1  1s           0.636290    -0.099967
                              0.147860     0.399513
                              0.048089     0.700115
    3.1 A1    1  2pz          0.636290     0.155916
                              0.147860     0.607684
                              0.048089     0.391957
    4.1 A1    2  1s          16.119575     0.154329
                              2.936201     0.535328
                              0.794651     0.444635
    5.1 A1    2  1s           0.636290    -0.099967
                              0.147860     0.399513
                              0.048089     0.700115
    6.1 A1    2  2pz          0.636290     0.155916
                              0.147860     0.607684
                              0.048089     0.391957
    1.2 B1    1  2px          0.636290     0.155916
                              0.147860     0.607684
                              0.048089     0.391957
    2.2 B1    2  2px          0.636290     0.155916
                              0.147860     0.607684
                              0.048089     0.391957
    1.3 B2    1  2py          0.636290     0.155916
                              0.147860     0.607684
                              0.048089     0.391957
    2.3 B2    2  2py          0.636290     0.155916
                              0.147860     0.607684
                              0.048089     0.391957

 NUCLEAR CHARGE:                    6
 NUMBER OF PRIMITIVE AOS:          30
 NUMBER OF SYMMETRY AOS:           30
 NUMBER OF CONTRACTIONS:           10   (    6A1  +    2B1  +    2B2  +    0A2  )
 NUMBER OF CORE ORBITALS:           2   (    2A1  +    0B1  +    0B2  +    0A2  )
 NUMBER OF VALENCE ORBITALS:        8   (    4A1  +    2B1  +    2B2  +    0A2  )


 NUCLEAR REPULSION ENERGY    1.80000000

 Eigenvalues of metric

         1 0.155E+00 0.805E+00 0.846E+00 0.104E+01 0.123E+01 0.192E+01
         2 0.713E+00 0.129E+01
         3 0.713E+00 0.129E+01


 Contracted 2-electron integrals neglected if value below      1.0D-11
 AO integral compression algorithm  1   Integral accuracy      1.0D-11

     0.262 MB (compressed) written to integral file (100.0%)


 NUMBER OF SORTED TWO-ELECTRON INTEGRALS:        648.     BUFFER LENGTH:  32768
 NUMBER OF SEGMENTS:   1  SEGMENT LENGTH:        648      RECORD LENGTH: 524288

 Memory used in sort:       0.56 MW

 SORT1 READ         777. AND WROTE         608. INTEGRALS IN      1 RECORDS. CPU TIME:     0.00 SEC, REAL TIME:     0.00 SEC
 SORT2 READ         608. AND WROTE         648. INTEGRALS IN      1 RECORDS. CPU TIME:     0.01 SEC, REAL TIME:     0.01 SEC

 FILE SIZES:   FILE 1:    30.2 MBYTE,  FILE 4:     4.2 MBYTE,   TOTAL:     34.4 MBYTE

 OPERATOR DM      FOR CENTER  0  COORDINATES:    0.000000    0.000000    0.000000


 **********************************************************************************************************************************
 DATASETS  * FILE   NREC   LENGTH (MB)   RECORD NAMES
              1      19       29.94       500      700      610      900      950      970     1000      129      960     1100   
                                          VAR     GEOM    BASINP   SYMINP    ZMAT    AOBASIS   BASIS     P2S    ABASIS      S 
                                         1400     1410     1200     1210     1080     1600     1650     1300     1700   
                                           T        V       H0       H01     AOSYM     SMH    MOLCAS    ERIS     OPER   

              3       5       14.77       500      610      700     1000     2100   
                                          VAR    BASINP    GEOM     BASIS     RHF  

 PROGRAMS   *        TOTAL       INT   RESTART
 CPU TIMES  *         0.27      0.15      0.01
 REAL TIME  *         0.42 SEC
 DISK USED  *        49.42 MB
 **********************************************************************************************************************************


 PROGRAM * CISD (Closed-shell CI(SD))     Authors: C. Hampel, H.-J. Werner, 1991, M. Deegan, P.J. Knowles, 1992


 Input parameters for THRESH:

 ENERGY   =    1.00D-10
 COEFF    =    1.00D-12
 PRINTCI  =    0.000000
 THRPRINT =    0.000000

 Convergence thresholds:  THRVAR = 1.00D-24  THRDEN = 1.00D-10

 Number of closed-shell orbitals:   3 (   3   0   0 )
 Number of external orbitals:       7 (   3   2   2 )

 Molecular orbitals read from record     2100.3  Type=RHF/CANONICAL (state 1.1)

 Number of N-1 electron functions:               3
 Number of N-2 electron functions:               6
 Number of singly external CSFs:                 9
 Number of doubly external CSFs:                87
 Total number of CSFs:                          97

 Length of J-op  integral file:               0.00 MB
 Length of K-op  integral file:               0.03 MB

 Integral transformation finished. Total CPU:   0.00 sec, npass=  1  Memory used:   0.07 MW

 Reference energy:                    -14.63864283

 MP2 singlet pair energy:              -0.01670946
 MP2 triplet pair energy:              -0.00004955
 MP2 correlation energy:               -0.01675902
 MP2 total energy:                    -14.65540185

 SCS-MP2 correlation energy:           -0.02008219   (PS=  1.200000  PT=  0.333333)
 SCS-MP2 total energy:                -14.65872502

 ITER.      SQ.NORM     CORR.ENERGY   TOTAL ENERGY   ENERGY CHANGE        DEN1      VAR(S)    VAR(P)  DIIS     TIME  TIME/IT
   1      1.04538228    -0.02470359   -14.66334642    -0.00794457    -0.00444444  0.24D-03  0.25D-02  1  1     0.02     0.00
   2      1.07434896    -0.02617270   -14.66481554    -0.00146912    -0.00490310  0.10D-03  0.30D-03  2  2     0.02     0.00
   3      1.09276790    -0.02813042   -14.66677325    -0.00195772    -0.00212754  0.11D-04  0.59D-04  3  3     0.03     0.00
   4      1.09844744    -0.02855575   -14.66719858    -0.00042532    -0.00032134  0.66D-07  0.32D-05  4  4     0.03     0.00
   5      1.09907509    -0.02861692   -14.66725975    -0.00006117    -0.00003447  0.46D-08  0.71D-06  5  5     0.03     0.00
   6      1.09938688    -0.02861913   -14.66726197    -0.00000222    -0.00002665  0.47D-08  0.21D-06  6  6     0.03     0.00
   7      1.09943734    -0.02861981   -14.66726264    -0.00000068    -0.00000028  0.30D-08  0.22D-07  6  2     0.03     0.00
   8      1.09948403    -0.02862006   -14.66726290    -0.00000025    -0.00000390  0.45D-09  0.20D-08  6  1     0.04     0.00
   9      1.09947872    -0.02862009   -14.66726292    -0.00000002     0.00000061  0.14D-10  0.34D-09  6  4     0.04     0.00
  10      1.09947890    -0.02862009   -14.66726292    -0.00000000     0.00000005  0.28D-11  0.11D-09  6  3     0.04     0.00
  11      1.09947642    -0.02862009   -14.66726292    -0.00000000     0.00000031  0.23D-10  0.99D-11  6  6     0.04     0.00
  12      1.09947761    -0.02862009   -14.66726292    -0.00000000    -0.00000008  0.14D-10  0.20D-11  6  5     0.04     0.00
  13      1.09947927    -0.02862009   -14.66726292    -0.00000000    -0.00000013  0.27D-11  0.70D-12  6  2     0.04     0.00
  14      1.09948069    -0.02862009   -14.66726292    -0.00000000    -0.00000011  0.91D-14  0.13D-12  6  1     0.04     0.00
  15      1.09948077    -0.02862009   -14.66726292    -0.00000000    -0.00000000  0.30D-15  0.10D-13  6  3     0.05     0.00
  16      1.09948071    -0.02862009   -14.66726292    -0.00000000     0.00000001  0.95D-15  0.18D-14  6  4     0.05     0.00
  17      1.09948070    -0.02862009   -14.66726292    -0.00000000     0.00000000  0.51D-15  0.66D-15  6  6     0.05     0.00
  18      1.09948069    -0.02862009   -14.66726292     0.00000000     0.00000000  0.45D-16  0.12D-15  6  5     0.05     0.00
  19      1.09948069    -0.02862009   -14.66726292    -0.00000000    -0.00000000  0.11D-17  0.31D-16  6  2     0.05     0.00
  20      1.09948069    -0.02862009   -14.66726292     0.00000000    -0.00000000  0.79D-17  0.71D-17  6  1     0.05     0.00
  21      1.09948069    -0.02862009   -14.66726292     0.00000000    -0.00000000  0.52D-17  0.22D-17  6  3     0.06     0.00
  22      1.09948069    -0.02862009   -14.66726292     0.00000000     0.00000000  0.14D-17  0.77D-18  6  4     0.06     0.00
  23      1.09948069    -0.02862009   -14.66726292     0.00000000     0.00000000  0.67D-19  0.14D-18  6  6     0.06     0.00
  24      1.09948069    -0.02862009   -14.66726292     0.00000000     0.00000000  0.70D-20  0.33D-19  6  5     0.06     0.00
  25      1.09948069    -0.02862009   -14.66726292     0.00000000     0.00000000  0.47D-22  0.67D-20  6  1     0.06     0.00
  26      1.09948069    -0.02862009   -14.66726292     0.00000000    -0.00000000  0.85D-24  0.27D-21  6  2     0.07     0.00
  27      1.09948069    -0.02862009   -14.66726292     0.00000000     0.00000000  0.12D-23  0.49D-22  6  3     0.07     0.00
  28      1.09948069    -0.02862009   -14.66726292     0.00000000     0.00000000  0.49D-25  0.24D-23  6  4     0.07     0.00
  29      1.09948069    -0.02862009   -14.66726292     0.00000000     0.00000000  0.20D-24  0.60D-24  6  6     0.07     0.00


 ! DIPOLE MOMENTS:                      0.00000000     0.00000000     0.00000000



 Norm of t1 vector:      0.06364333      S-energy:    -0.00010544      T1 diagnostic:  0.01837225

 Singles amplitudes (print threshold =  0.000E+00):

         I         SYM. A    A   T(IA)

         1         1         1      0.00000000
         1         1         2      0.00026879
         1         1         3      0.00000000
         2         1         1      0.00076420
         2         1         2     -0.00000000
         2         1         3      0.00092797
         3         1         1      0.00000000
         3         1         2     -0.04498577
         3         1         3      0.00000000

 Doubles amplitudes (print threshold =  0.000E+00):

         I         J         SYM. A    SYM. B    A         B      T(IJ, AB)

         1         1         1         1         1         1     -0.00197918
         1         1         1         1         1         2     -0.00000000
         1         1         1         1         1         3     -0.00094548
         1         1         1         1         2         1     -0.00000000
         1         1         1         1         2         2     -0.00087570
         1         1         1         1         2         3      0.00000000
         1         1         1         1         3         1     -0.00094548
         1         1         1         1         3         2      0.00000000
         1         1         1         1         3         3     -0.00263211
         1         1         2         2         1         1     -0.00042020
         1         1         2         2         1         2      0.00000000
         1         1         2         2         2         1      0.00000000
         1         1         2         2         2         2     -0.00113448
         1         1         3         3         1         1     -0.00042020
         1         1         3         3         1         2      0.00000000
         1         1         3         3         2         1      0.00000000
         1         1         3         3         2         2     -0.00113448
         2         1         1         1         1         1      0.00000000
         2         1         1         1         1         2      0.00080827
         2         1         1         1         1         3      0.00000000
         2         1         1         1         2         1      0.00074361
         2         1         1         1         2         2     -0.00000000
         2         1         1         1         2         3     -0.00095453
         2         1         1         1         3         1      0.00000000
         2         1         1         1         3         2     -0.00106748
         2         1         1         1         3         3     -0.00000000
         2         1         2         2         1         1     -0.00000000
         2         1         2         2         1         2     -0.00096315
         2         1         2         2         2         1     -0.00102507
         2         1         2         2         2         2     -0.00000000
         2         1         3         3         1         1     -0.00000000
         2         1         3         3         1         2     -0.00096315
         2         1         3         3         2         1     -0.00102507
         2         1         3         3         2         2     -0.00000000
         2         2         1         1         1         1     -0.00200496
         2         2         1         1         1         2      0.00000000
         2         2         1         1         1         3     -0.00087109
         2         2         1         1         2         1      0.00000000
         2         2         1         1         2         2     -0.00075047
         2         2         1         1         2         3     -0.00000000
         2         2         1         1         3         1     -0.00087109
         2         2         1         1         3         2     -0.00000000
         2         2         1         1         3         3     -0.00272577
         2         2         2         2         1         1     -0.00036941
         2         2         2         2         1         2     -0.00000000
         2         2         2         2         2         1     -0.00000000
         2         2         2         2         2         2     -0.00121730
         2         2         3         3         1         1     -0.00036941
         2         2         3         3         1         2     -0.00000000
         2         2         3         3         2         1     -0.00000000
         2         2         3         3         2         2     -0.00121730
         3         1         1         1         1         1      0.00123264
         3         1         1         1         1         2      0.00000000
         3         1         1         1         1         3      0.00269043
         3         1         1         1         2         1      0.00000000
         3         1         1         1         2         2     -0.00344034
         3         1         1         1         2         3     -0.00000000
         3         1         1         1         3         1      0.00226851
         3         1         1         1         3         2     -0.00000000
         3         1         1         1         3         3     -0.00118236
         3         1         2         2         1         1     -0.00287101
         3         1         2         2         1         2     -0.00000000
         3         1         2         2         2         1     -0.00000000
         3         1         2         2         2         2     -0.00284700
         3         1         3         3         1         1     -0.00287101
         3         1         3         3         1         2     -0.00000000
         3         1         3         3         2         1     -0.00000000
         3         1         3         3         2         2     -0.00284700
         3         2         1         1         1         1      0.00000000
         3         2         1         1         1         2      0.00107171
         3         2         1         1         1         3     -0.00000000
         3         2         1         1         2         1      0.00129359
         3         2         1         1         2         2      0.00000000
         3         2         1         1         2         3     -0.00359842
         3         2         1         1         3         1     -0.00000000
         3         2         1         1         3         2     -0.00186864
         3         2         1         1         3         3      0.00000000
         3         2         2         2         1         1      0.00000000
         3         2         2         2         1         2     -0.00296639
         3         2         2         2         2         1     -0.00228245
         3         2         2         2         2         2      0.00000000
         3         2         3         3         1         1      0.00000000
         3         2         3         3         1         2     -0.00296639
         3         2         3         3         2         1     -0.00228245
         3         2         3         3         2         2      0.00000000
         3         3         1         1         1         1     -0.14817266
         3         3         1         1         1         2      0.00000000
         3         3         1         1         1         3     -0.05201066
         3         3         1         1         2         1      0.00000000
         3         3         1         1         2         2     -0.09875207
         3         3         1         1         2         3     -0.00000000
         3         3         1         1         3         1     -0.05201066
         3         3         1         1         3         2     -0.00000000
         3         3         1         1         3         3     -0.02477088
         3         3         2         2         1         1     -0.16945024
         3         3         2         2         1         2     -0.00000000
         3         3         2         2         2         1     -0.00000000
         3         3         2         2         2         2     -0.00109988
         3         3         3         3         1         1     -0.16945024
         3         3         3         3         1         2     -0.00000000
         3         3         3         3         2         1     -0.00000000
         3         3         3         3         2         2     -0.00109988


 RESULTS
 =======

  Reference energy                    -14.638642833983

  Correlated core orbitals:             1.1       2.1
  Orbital energies:                    -2.3298   -2.3297

  CISD core-core energy                -0.000261367815
  CISD core-valence energy             -0.000530752761
  CISD valence correlation energy      -0.027827967978

  CISD singlet pair energy             -0.028476120217
  CISD triplet pair energy             -0.000038532273
  CISD correlation energy              -0.028620088554

 !CISD total energy                   -14.667262922537

 Timing summary (sec):

 STEP                 CPU(USER)    SYS     CPU(TOT)    WALL
 Transformation          0.01      0.00      0.01      0.00
 CCSD iterations         0.06      0.01      0.07      0.09

 Program statistics:

 Available memory in ccsd:                39999164
 Min. memory needed in ccsd:                  1211
 Max. memory used in ccsd:                    1211
 Max. memory used in cckext:                 33976 (29 integral passes)



 **********************************************************************************************************************************
 DATASETS  * FILE   NREC   LENGTH (MB)   RECORD NAMES
              1      20       29.95       500      700      610      900      950      970     1000      129      960     1100   
                                          VAR     GEOM    BASINP   SYMINP    ZMAT    AOBASIS   BASIS     P2S    ABASIS      S 
                                         1400     1410     1200     1210     1080     1600     1650     1300     1700     1380   
                                           T        V       H0       H01     AOSYM     SMH    MOLCAS    ERIS     OPER     JKOP   

              3       5       14.77       500      610      700     1000     2100   
                                          VAR    BASINP    GEOM     BASIS     RHF  

 PROGRAMS   *        TOTAL      CISD       INT   RESTART
 CPU TIMES  *         0.40      0.13      0.15      0.01
 REAL TIME  *         0.57 SEC
 DISK USED  *        49.42 MB
 **********************************************************************************************************************************
 Molecular orbitals read from record     2100.3  Type=RHF/CANONICAL (state 1.1)
 Occupation numbers read from record     2100.3  Type=RHF/RHF (state 1.1)
 Orbital energies read from record       2100.3  Type=RHF/CANONICAL (state 1.1)
 Redundancy group numbers read from rec  2100.3  Type=RHF/RHF (state 1.1)

 CISD/STO-3G energy=    -14.667262922537

            CISD
    -14.66726292
 **********************************************************************************************************************************
 Molpro calculation terminated
