
 Primary working directories    : /scr/yuriaoto/job.023858/molpro.aExLHbHSQF
 Secondary working directories  : /scr/yuriaoto/job.023858/molpro.aExLHbHSQF
 Wavefunction directory         : /scr/yuriaoto/job.023858/
 Main file repository           : /scr/yuriaoto/job.023858/molpro.aExLHbHSQF/

 id        : yuriaoto

 Nodes             nprocs
 t-rex.ufabc.int.br    1

 Using customized tuning parameters: mindgm=8; mindgv=16; mindgc=1; mindgr=1; noblas=0; minvec=7
 default implementation of scratch files=df  


 Variables initialized (933), CPU time= 0.00 sec
 ***,
 memory,40,m
 gprint,orbital,basis,civector
 gthresh,thrprint=0,printci=0.0
 file,3,wfu.dat,old
 
 {cisd,CC_NORM_MAX=10.0
 thresh,printci=0.0,ENERGY=1.0E-10,COEFF=1.0E-12
 print,ref=1
 core,0,0,0,0
 closed,2,0,0,0
 occ,3,0,0,0
 wf,5,1,1;
 }
 
 Commands  initialized (760), CPU time= 0.00 sec, 617 directives.
 Default parameters read. Elapsed time= 0.04 sec

 Checking input...
 Passed
1


                                         ***  PROGRAM SYSTEM MOLPRO  ***
                                       Copyright, TTI GmbH Stuttgart, 2015
                                    Version 2019.2 linked Abr  7 2019 15:10:35


 **********************************************************************************************************************************
 LABEL *                                                                                 
  64 bit serial version                                                                  DATE: 10-Jun-20          TIME: 16:14:21  
 **********************************************************************************************************************************

 SHA1:             3a8a58c585c929645742fb5a1b7541a4ad1da699
 **********************************************************************************************************************************


 THRESHOLDS:

 ZERO    =  1.00D-12  ONEINT  =  1.00D-12  TWOINT  =  1.00D-11  PREFAC  =  1.00D-14  XXXXXX  =  1.00D-09  EORDER  =  1.00D-04
 ENERGY  =  0.00D+00  ETEST   =  0.00D+00  EDENS   =  0.00D+00  THRDEDEF=  1.00D-06  GRADIENT=  1.00D-02  STEP    =  1.00D-03
 ORBITAL =  1.00D-05  CIVEC   =  1.00D-05  COEFF   =  1.00D-04  PRINTCI =  0.00D+00  PUNCHCI =  9.90D+01  OPTGRAD =  3.00D-04
 OPTENERG=  1.00D-06  OPTSTEP =  3.00D-04  THRGRAD =  1.00D-10  COMPRESS=  1.00D-11  VARMIN  =  1.00D-07  VARMAX  =  1.00D-03
 THRDOUB =  0.00D+00  THRDIV  =  1.00D-05  THRRED  =  1.00D-07  THRPSP  =  1.00D+00  THRDC   =  1.00D-10  THRCS   =  1.00D-10
 THRNRM  =  1.00D-08  THREQ   =  0.00D+00  THRDE   =  1.00D+00  THRREF  =  1.00D-05  SPARFAC =  1.00D+00  THRDLP  =  1.00D-07
 THRDIA  =  1.00D-10  THRDLS  =  1.00D-07  THRGPS  =  0.00D+00  THRKEX  =  0.00D+00  THRDIS  =  2.00D-01  THRVAR  =  1.00D-10
 THRLOC  =  1.00D-06  THRGAP  =  1.00D-06  THRLOCT = -1.00D+00  THRGAPT = -1.00D+00  THRORB  =  1.00D-06  THRMLTP =  0.00D+00
 THRCPQCI=  1.00D-10  KEXTA   =  0.00D+00  THRCOARS=  0.00D+00  SYMTOL  =  1.00D-06  GRADTOL =  1.00D-06  THROVL  =  1.00D-08
 THRORTH =  1.00D-08  GRID    =  1.00D-06  GRIDMAX =  1.00D-03  DTMAX   =  0.00D+00  THROCCDE=  1.00D-01  THROCCDE=  1.00D-01
 THRPRINT=  0.00D+00


 Variable memory set to   40000000 words,  buffer space 



 Permanent file  3  wfu.dat  assigned.  Implementation=df    Size= 14.08 MB


 PROGRAM * RESTART 


 Reading variables from file 3

 _FNUC           =      0.00000000
 _BASIS          =    STO-3G
 _NELEC          =      6.00000000
 _PROGRAM        =    RHF-SCF
 _DMZ            =     -0.00000000
 _DMX_SCF        =      0.00000000
 _DMY_SCF        =      0.00000000
 _DMZ_SCF        =     -0.00000000
 _HOMO           =      3.10000000
 _EHOMO          =     -0.15007102
 _LUMO           =      4.10000000
 _ELUMO          =      0.08336193
 _ENERGY         =    -14.63864283
 _ENERGY_METHOD  =    RHF
 _ENERGY_BASIS   =    STO-3G
 _ENUC           =      1.80000000
 _EPS1(1:6)      =     -2.32975138    -2.32973347    -0.15007102     0.08336193     0.15828123     0.47434817
 _EPS2(1:2)      =      0.13305715     0.24181392
 _EPS3(1:2)      =      0.13305715     0.24181392
 _IPROC_MPP      =      0.00000000
 _IPROC_MPPX     =      0.00000000
 _ORBITAL        =   2100.30000000
 _STATUS         =      1.00000000
 _DATE           =    21-Oct-19
 _LASTORB        =    RHF
 _OUTPUT         =    /scr/yuriaoto/job.022398/RHF.xml
 _PGROUP         =    C2v 
 _TIME           =    10:12:38
 R               =      5.00000000

 Geometry written to block  1 of record 700


 **********************************************************************************************************************************
 DATASETS  * FILE   NREC   LENGTH (MB)   RECORD NAMES
              3       5       14.77       500      610      700     1000     2100   
                                          VAR    BASINP    GEOM     BASIS     RHF  

 PROGRAMS   *        TOTAL   RESTART
 CPU TIMES  *         0.12      0.02
 REAL TIME  *         0.15 SEC
 DISK USED  *        26.84 MB
 **********************************************************************************************************************************


 Recomputing integrals since basis changed


 Using spherical harmonics

 Library entry LI     S STO-3G               selected for orbital group  1
 Library entry LI     P STO-3G               selected for orbital group  1


 PROGRAM * SEWARD (Integral evaluation for generally contracted gaussian basis sets)     Author: Roland Lindh, 1990

 Geometry written to block  1 of record 700

 Orientation using atomic masses  
 Molecule type: Linear
 User-specified symmetry elements: X,Y
 Symmetry elements: X,Y
 Rotational constants:      20.8009354     20.8009354      0.0000000 GHz  (calculated with average atomic masses)

 Point group  C2v 



 ATOMIC COORDINATES

 NR  ATOM    CHARGE       X              Y              Z

   1  LI1     3.00    0.000000000    0.000000000   -2.500000000
   2  LI2     3.00    0.000000000    0.000000000    2.500000000

 Bond lengths in Bohr (Angstrom)

 1-2  5.000000000
     ( 2.645886055)


 BASIS DATA

   Nr Sym  Nuc  Type         Exponents   Contraction coefficients

    1.1 A1    1  1s          16.119575     0.154329
                              2.936201     0.535328
                              0.794651     0.444635
    2.1 A1    1  1s           0.636290    -0.099967
                              0.147860     0.399513
                              0.048089     0.700115
    3.1 A1    1  2pz          0.636290     0.155916
                              0.147860     0.607684
                              0.048089     0.391957
    4.1 A1    2  1s          16.119575     0.154329
                              2.936201     0.535328
                              0.794651     0.444635
    5.1 A1    2  1s           0.636290    -0.099967
                              0.147860     0.399513
                              0.048089     0.700115
    6.1 A1    2  2pz          0.636290     0.155916
                              0.147860     0.607684
                              0.048089     0.391957
    1.2 B1    1  2px          0.636290     0.155916
                              0.147860     0.607684
                              0.048089     0.391957
    2.2 B1    2  2px          0.636290     0.155916
                              0.147860     0.607684
                              0.048089     0.391957
    1.3 B2    1  2py          0.636290     0.155916
                              0.147860     0.607684
                              0.048089     0.391957
    2.3 B2    2  2py          0.636290     0.155916
                              0.147860     0.607684
                              0.048089     0.391957

 NUCLEAR CHARGE:                    6
 NUMBER OF PRIMITIVE AOS:          30
 NUMBER OF SYMMETRY AOS:           30
 NUMBER OF CONTRACTIONS:           10   (    6A1  +    2B1  +    2B2  +    0A2  )
 NUMBER OF CORE ORBITALS:           2   (    2A1  +    0B1  +    0B2  +    0A2  )
 NUMBER OF VALENCE ORBITALS:        8   (    4A1  +    2B1  +    2B2  +    0A2  )


 NUCLEAR REPULSION ENERGY    1.80000000

 Eigenvalues of metric

         1 0.155E+00 0.805E+00 0.846E+00 0.104E+01 0.123E+01 0.192E+01
         2 0.713E+00 0.129E+01
         3 0.713E+00 0.129E+01


 Contracted 2-electron integrals neglected if value below      1.0D-11
 AO integral compression algorithm  1   Integral accuracy      1.0D-11

     0.262 MB (compressed) written to integral file (100.0%)


 NUMBER OF SORTED TWO-ELECTRON INTEGRALS:        648.     BUFFER LENGTH:  32768
 NUMBER OF SEGMENTS:   1  SEGMENT LENGTH:        648      RECORD LENGTH: 524288

 Memory used in sort:       0.56 MW

 SORT1 READ         777. AND WROTE         608. INTEGRALS IN      1 RECORDS. CPU TIME:     0.01 SEC, REAL TIME:     0.01 SEC
 SORT2 READ         608. AND WROTE         648. INTEGRALS IN      1 RECORDS. CPU TIME:     0.00 SEC, REAL TIME:     0.00 SEC

 FILE SIZES:   FILE 1:    30.2 MBYTE,  FILE 4:     4.2 MBYTE,   TOTAL:     34.4 MBYTE

 OPERATOR DM      FOR CENTER  0  COORDINATES:    0.000000    0.000000    0.000000


 **********************************************************************************************************************************
 DATASETS  * FILE   NREC   LENGTH (MB)   RECORD NAMES
              1      19       29.94       500      700      610      900      950      970     1000      129      960     1100   
                                          VAR     GEOM    BASINP   SYMINP    ZMAT    AOBASIS   BASIS     P2S    ABASIS      S 
                                         1400     1410     1200     1210     1080     1600     1650     1300     1700   
                                           T        V       H0       H01     AOSYM     SMH    MOLCAS    ERIS     OPER   

              3       5       14.77       500      610      700     1000     2100   
                                          VAR    BASINP    GEOM     BASIS     RHF  

 PROGRAMS   *        TOTAL       INT   RESTART
 CPU TIMES  *         0.25      0.13      0.02
 REAL TIME  *         0.38 SEC
 DISK USED  *        49.42 MB
 **********************************************************************************************************************************


 PROGRAM * CISD (Closed-shell CI(SD))     Authors: C. Hampel, H.-J. Werner, 1991, M. Deegan, P.J. Knowles, 1992


 Input parameters for THRESH:

 ENERGY   =    1.00D-10
 COEFF    =    1.00D-12
 PRINTCI  =    0.000000
 THRPRINT =    0.000000

 Convergence thresholds:  THRVAR = 1.00D-24  THRDEN = 1.00D-10

 Number of closed-shell orbitals:   2 (   2   0   0 )
 Number of active  orbitals:        1 (   1   0   0 )
 Number of external orbitals:       7 (   3   2   2 )

 Number of N-1 electron functions:               5
 Number of N-2 electron functions:              10
 Number of singly external CSFs:                20
 Number of doubly external CSFs:               176
 Total number of CSFs:                         196

 Molecular orbitals read from record     2100.3  Type=RHF/CANONICAL (state 1.1)

 Integral transformation finished. Total CPU:   0.00 sec, npass=  1  Memory used:   0.07 MW

 Starting RMP2 calculation, locsing= 0

 ITER.      SQ.NORM     CORR.ENERGY   TOTAL ENERGY   ENERGY CHANGE        DEN1      VAR(S)    VAR(P)  DIIS     TIME
   1      1.01427470    -0.00605905   -14.49463086    -0.00605905    -0.00038250  0.78D-03  0.43D-06  1  1     0.00
   2      1.01732864    -0.00660123   -14.49517305    -0.00054218    -0.00000038  0.33D-06  0.49D-07  2  2     0.00
   3      1.01739360    -0.00661154   -14.49518335    -0.00001031    -0.00000000  0.60D-12  0.11D-10  3  3     0.00
   4      1.01739365    -0.00661154   -14.49518336    -0.00000000    -0.00000000  0.23D-15  0.52D-15  4  4     0.00
   5      1.01739365    -0.00661154   -14.49518336     0.00000000    -0.00000000  0.10D-19  0.12D-18  5  5     0.00
   6      1.01739365    -0.00661154   -14.49518336     0.00000000    -0.00000000  0.65D-23  0.14D-22  6  6     0.00
   7      1.01739365    -0.00661154   -14.49518336    -0.00000000    -0.00000000  0.16D-25  0.35D-25  6  1     0.01

 Norm of t1 vector:      0.13121529      S-energy:    -0.00588630      T1 diagnostic:  0.04149031
 Norm of t2 vector:      0.01327378      P-energy:    -0.00072524
                                         Alpha-Beta:  -0.00070905
                                         Alpha-Alpha: -0.00001607
                                         Beta-Beta:   -0.00000011

 Singles amplitudes (print threshold =  0.000E+00):

         I         SYM. A    A   T(IA) [Alpha-Alpha]

         1         1         1      0.00000000
         1         1         2     -0.00000000
         1         1         3      0.00356976
         1         1         4      0.00000000
         2         1         1      0.00000000
         2         1         2     -0.00328891
         2         1         3     -0.00000000
         2         1         4      0.00186829
         3         1         1      0.00000000
         3         1         2     -0.00000000
         3         1         3      0.13104484
         3         1         4      0.00000000

         I         SYM. A    A   T(IA) [Beta-Beta]

         1         1         1     -0.00000000
         1         1         2     -0.00000000
         1         1         3      0.00257620
         1         1         4      0.00000000
         2         1         1     -0.00000000
         2         1         2     -0.00137180
         2         1         3     -0.00000000
         2         1         4      0.00302199
         3         1         1      0.00000000
         3         1         2      0.00000000
         3         1         3      0.00000000
         3         1         4      0.00000000

 Doubles amplitudes (print threshold =  0.000E+00):

         I         J         SYM. A    SYM. B    A         B      T(IJ, AB) [Alpha-Alpha]

         2         1         1         1         1         1      0.00000000
         2         1         1         1         1         2      0.00000000
         2         1         1         1         1         3      0.00000000
         2         1         1         1         1         4      0.00000000
         2         1         1         1         2         1      0.00000000
         2         1         1         1         2         2      0.00000000
         2         1         1         1         2         3      0.00005724
         2         1         1         1         2         4     -0.00000000
         2         1         1         1         3         1      0.00000000
         2         1         1         1         3         2     -0.00005724
         2         1         1         1         3         3      0.00000000
         2         1         1         1         3         4      0.00010831
         2         1         1         1         4         1      0.00000000
         2         1         1         1         4         2      0.00000000
         2         1         1         1         4         3     -0.00010831
         2         1         1         1         4         4      0.00000000
         2         1         2         2         1         1      0.00000000
         2         1         2         2         1         2      0.00005838
         2         1         2         2         2         1     -0.00005838
         2         1         2         2         2         2      0.00000000
         2         1         3         3         1         1      0.00000000
         2         1         3         3         1         2      0.00005838
         2         1         3         3         2         1     -0.00005838
         2         1         3         3         2         2      0.00000000
         3         1         1         1         1         1      0.00000000
         3         1         1         1         1         2      0.00000000
         3         1         1         1         1         3      0.00000000
         3         1         1         1         1         4      0.00000000
         3         1         1         1         2         1      0.00000000
         3         1         1         1         2         2      0.00000000
         3         1         1         1         2         3     -0.00000000
         3         1         1         1         2         4      0.00030745
         3         1         1         1         3         1      0.00000000
         3         1         1         1         3         2      0.00000000
         3         1         1         1         3         3      0.00000000
         3         1         1         1         3         4     -0.00000000
         3         1         1         1         4         1      0.00000000
         3         1         1         1         4         2     -0.00030745
         3         1         1         1         4         3      0.00000000
         3         1         1         1         4         4      0.00000000
         3         1         2         2         1         1      0.00000000
         3         1         2         2         1         2     -0.00000000
         3         1         2         2         2         1      0.00000000
         3         1         2         2         2         2      0.00000000
         3         1         3         3         1         1      0.00000000
         3         1         3         3         1         2     -0.00000000
         3         1         3         3         2         1      0.00000000
         3         1         3         3         2         2      0.00000000
         3         2         1         1         1         1      0.00000000
         3         2         1         1         1         2      0.00000000
         3         2         1         1         1         3      0.00000000
         3         2         1         1         1         4      0.00000000
         3         2         1         1         2         1      0.00000000
         3         2         1         1         2         2      0.00000000
         3         2         1         1         2         3     -0.00036674
         3         2         1         1         2         4     -0.00000000
         3         2         1         1         3         1      0.00000000
         3         2         1         1         3         2      0.00036674
         3         2         1         1         3         3      0.00000000
         3         2         1         1         3         4     -0.00160380
         3         2         1         1         4         1      0.00000000
         3         2         1         1         4         2      0.00000000
         3         2         1         1         4         3      0.00160380
         3         2         1         1         4         4      0.00000000
         3         2         2         2         1         1      0.00000000
         3         2         2         2         1         2     -0.00109670
         3         2         2         2         2         1      0.00109670
         3         2         2         2         2         2      0.00000000
         3         2         3         3         1         1      0.00000000
         3         2         3         3         1         2     -0.00109670
         3         2         3         3         2         1      0.00109670
         3         2         3         3         2         2      0.00000000

         I         J         SYM. A    SYM. B    A         B      T(IJ, AB) [Beta-Beta]

         2         1         1         1         1         1      0.00000000
         2         1         1         1         1         2     -0.00000873
         2         1         1         1         1         3      0.00000000
         2         1         1         1         1         4      0.00001408
         2         1         1         1         2         1      0.00000873
         2         1         1         1         2         2      0.00000000
         2         1         1         1         2         3      0.00005692
         2         1         1         1         2         4     -0.00000000
         2         1         1         1         3         1     -0.00000000
         2         1         1         1         3         2     -0.00005692
         2         1         1         1         3         3      0.00000000
         2         1         1         1         3         4      0.00010672
         2         1         1         1         4         1     -0.00001408
         2         1         1         1         4         2      0.00000000
         2         1         1         1         4         3     -0.00010672
         2         1         1         1         4         4      0.00000000
         2         1         2         2         1         1      0.00000000
         2         1         2         2         1         2      0.00005725
         2         1         2         2         2         1     -0.00005725
         2         1         2         2         2         2      0.00000000
         2         1         3         3         1         1      0.00000000
         2         1         3         3         1         2      0.00005725
         2         1         3         3         2         1     -0.00005725
         2         1         3         3         2         2      0.00000000

         I         J         SYM. A    SYM. B    A         B      T(IJ, AB) [Alpha-Beta]

         1         1         1         1         1         1      0.00000000
         1         1         1         1         1         2      0.00000000
         1         1         1         1         1         3      0.00000000
         1         1         1         1         1         4      0.00000000
         1         1         1         1         2         1     -0.00000000
         1         1         1         1         2         2     -0.00267553
         1         1         1         1         2         3      0.00000000
         1         1         1         1         2         4     -0.00127769
         1         1         1         1         3         1      0.00031563
         1         1         1         1         3         2      0.00000000
         1         1         1         1         3         3     -0.00110763
         1         1         1         1         3         4     -0.00000000
         1         1         1         1         4         1     -0.00000000
         1         1         1         1         4         2     -0.00127556
         1         1         1         1         4         3     -0.00000000
         1         1         1         1         4         4     -0.00284280
         1         1         2         2         1         1     -0.00085386
         1         1         2         2         1         2     -0.00000000
         1         1         2         2         2         1     -0.00000000
         1         1         2         2         2         2     -0.00115230
         1         1         3         3         1         1     -0.00085386
         1         1         3         3         1         2     -0.00000000
         1         1         3         3         2         1     -0.00000000
         1         1         3         3         2         2     -0.00115230
         2         1         1         1         1         1      0.00000000
         2         1         1         1         1         2      0.00000000
         2         1         1         1         1         3      0.00000000
         2         1         1         1         1         4      0.00000000
         2         1         1         1         2         1     -0.00268626
         2         1         1         1         2         2     -0.00000000
         2         1         1         1         2         3      0.00094991
         2         1         1         1         2         4      0.00000000
         2         1         1         1         3         1      0.00000000
         2         1         1         1         3         2      0.00089568
         2         1         1         1         3         3      0.00000000
         2         1         1         1         3         4     -0.00081044
         2         1         1         1         4         1     -0.00230015
         2         1         1         1         4         2      0.00000000
         2         1         1         1         4         3     -0.00091346
         2         1         1         1         4         4     -0.00000000
         2         1         2         2         1         1      0.00000000
         2         1         2         2         1         2     -0.00096178
         2         1         2         2         2         1     -0.00101503
         2         1         2         2         2         2     -0.00000000
         2         1         3         3         1         1      0.00000000
         2         1         3         3         1         2     -0.00096178
         2         1         3         3         2         1     -0.00101503
         2         1         3         3         2         2     -0.00000000
         1         2         1         1         1         1      0.00000000
         1         2         1         1         1         2      0.00000000
         1         2         1         1         1         3      0.00000000
         1         2         1         1         1         4      0.00000000
         1         2         1         1         2         1     -0.00269373
         1         2         1         1         2         2     -0.00000000
         1         2         1         1         2         3      0.00089380
         1         2         1         1         2         4      0.00000000
         1         2         1         1         3         1      0.00000000
         1         2         1         1         3         2      0.00095374
         1         2         1         1         3         3      0.00000000
         1         2         1         1         3         4     -0.00091951
         1         2         1         1         4         1     -0.00228533
         1         2         1         1         4         2      0.00000000
         1         2         1         1         4         3     -0.00080751
         1         2         1         1         4         4     -0.00000000
         1         2         2         2         1         1      0.00000000
         1         2         2         2         1         2     -0.00102133
         1         2         2         2         2         1     -0.00095894
         1         2         2         2         2         2     -0.00000000
         1         2         3         3         1         1      0.00000000
         1         2         3         3         1         2     -0.00102133
         1         2         3         3         2         1     -0.00095894
         1         2         3         3         2         2     -0.00000000
         2         2         1         1         1         1      0.00000000
         2         2         1         1         1         2      0.00000000
         2         2         1         1         1         3      0.00000000
         2         2         1         1         1         4      0.00000000
         2         2         1         1         2         1      0.00000000
         2         2         1         1         2         2     -0.00270451
         2         2         1         1         2         3     -0.00000000
         2         2         1         1         2         4     -0.00122000
         2         2         1         1         3         1      0.00033820
         2         2         1         1         3         2     -0.00000000
         2         2         1         1         3         3     -0.00099160
         2         2         1         1         3         4      0.00000000
         2         2         1         1         4         1      0.00000000
         2         2         1         1         4         2     -0.00121751
         2         2         1         1         4         3      0.00000000
         2         2         1         1         4         4     -0.00293061
         2         2         2         2         1         1     -0.00080196
         2         2         2         2         1         2      0.00000000
         2         2         2         2         2         1      0.00000000
         2         2         2         2         2         2     -0.00121862
         2         2         3         3         1         1     -0.00080196
         2         2         3         3         1         2      0.00000000
         2         2         3         3         2         1      0.00000000
         2         2         3         3         2         2     -0.00121862
         3         1         1         1         1         1      0.00000000
         3         1         1         1         1         2      0.00000000
         3         1         1         1         1         3      0.00000000
         3         1         1         1         1         4      0.00000000
         3         1         1         1         2         1      0.00000000
         3         1         1         1         2         2      0.00071703
         3         1         1         1         2         3      0.00000000
         3         1         1         1         2         4      0.00204060
         3         1         1         1         3         1     -0.00072318
         3         1         1         1         3         2      0.00000000
         3         1         1         1         3         3     -0.00288835
         3         1         1         1         3         4     -0.00000000
         3         1         1         1         4         1      0.00000000
         3         1         1         1         4         2      0.00174097
         3         1         1         1         4         3     -0.00000000
         3         1         1         1         4         4     -0.00075560
         3         1         2         2         1         1     -0.00269548
         3         1         2         2         1         2     -0.00000000
         3         1         2         2         2         1     -0.00000000
         3         1         2         2         2         2     -0.00212817
         3         1         3         3         1         1     -0.00269548
         3         1         3         3         1         2     -0.00000000
         3         1         3         3         2         1     -0.00000000
         3         1         3         3         2         2     -0.00212817
         3         2         1         1         1         1      0.00000000
         3         2         1         1         1         2      0.00000000
         3         2         1         1         1         3      0.00000000
         3         2         1         1         1         4      0.00000000
         3         2         1         1         2         1      0.00174935
         3         2         1         1         2         2     -0.00000000
         3         2         1         1         2         3      0.00096121
         3         2         1         1         2         4     -0.00000000
         3         2         1         1         3         1      0.00000000
         3         2         1         1         3         2      0.00134543
         3         2         1         1         3         3      0.00000000
         3         2         1         1         3         4     -0.00303668
         3         2         1         1         4         1      0.00106487
         3         2         1         1         4         2     -0.00000000
         3         2         1         1         4         3     -0.00143233
         3         2         1         1         4         4      0.00000000
         3         2         2         2         1         1      0.00000000
         3         2         2         2         1         2     -0.00297213
         3         2         2         2         2         1     -0.00186398
         3         2         2         2         2         2      0.00000000
         3         2         3         3         1         1      0.00000000
         3         2         3         3         1         2     -0.00297213
         3         2         3         3         2         1     -0.00186398
         3         2         3         3         2         2      0.00000000

 Spin contamination <S**2-Sz**2-Sz>     0.00000011
  Reference energy                    -14.488571815334
  RHF-RMP2 correlation energy          -0.006611542236
 !RHF-RMP2 energy                     -14.495183357570

 Starting UCISD calculation

 ITER.      SQ.NORM     CORR.ENERGY   TOTAL ENERGY   ENERGY CHANGE        DEN1      VAR(S)    VAR(P)  DIIS     TIME
   1      1.02403744    -0.00762876   -14.49620058    -0.00762876    -0.00199003  0.41D-02  0.43D-05  1  1     0.01
   2      1.06840599    -0.01094157   -14.49951338    -0.00331281    -0.00016371  0.27D-03  0.69D-05  2  2     0.01
   3      1.08737401    -0.01370852   -14.50228034    -0.00276696    -0.00000219  0.61D-06  0.45D-06  3  3     0.01
   4      1.08889337    -0.01389700   -14.50246881    -0.00018847    -0.00000002  0.51D-08  0.34D-08  4  4     0.01
   5      1.08899141    -0.01389810   -14.50246992    -0.00000110    -0.00000000  0.64D-11  0.39D-10  5  5     0.01
   6      1.08898220    -0.01389811   -14.50246992    -0.00000000    -0.00000000  0.34D-12  0.75D-12  6  6     0.01
   7      1.08898167    -0.01389811   -14.50246992    -0.00000000    -0.00000000  0.13D-13  0.32D-13  6  1     0.01
   8      1.08898167    -0.01389811   -14.50246992    -0.00000000    -0.00000000  0.10D-15  0.31D-15  6  2     0.01
   9      1.08898167    -0.01389811   -14.50246992    -0.00000000    -0.00000000  0.21D-16  0.78D-17  6  3     0.01
  10      1.08898168    -0.01389811   -14.50246992     0.00000000    -0.00000000  0.31D-18  0.18D-18  6  4     0.01
  11      1.08898168    -0.01389811   -14.50246992     0.00000000    -0.00000000  0.94D-19  0.50D-20  6  5     0.01
  12      1.08898168    -0.01389811   -14.50246992     0.00000000    -0.00000000  0.19D-19  0.39D-21  6  6     0.01
  13      1.08898168    -0.01389811   -14.50246992     0.00000000    -0.00000000  0.36D-21  0.16D-22  6  2     0.02
  14      1.08898168    -0.01389811   -14.50246992     0.00000000    -0.00000000  0.10D-23  0.59D-24  6  1     0.02
  15      1.08898168    -0.01389811   -14.50246992     0.00000000    -0.00000000  0.72D-26  0.14D-25  6  3     0.02

 Norm of t1 vector:      0.29799392      S-energy:    -0.01320185      T1 diagnostic:  0.09423228
 Norm of t2 vector:      0.01346482      P-energy:    -0.00069626
                                         Alpha-Beta:  -0.00068617
                                         Alpha-Alpha: -0.00000997
                                         Beta-Beta:   -0.00000012

 Singles amplitudes (print threshold =  0.000E+00):

         I         SYM. A    A   T(IA) [Alpha-Alpha]

         1         1         1      0.00000000
         1         1         2     -0.00000000
         1         1         3      0.00263986
         1         1         4      0.00000000
         2         1         1      0.00000000
         2         1         2     -0.00218693
         2         1         3     -0.00000000
         2         1         4      0.00098127
         3         1         1      0.00000000
         3         1         2      0.00000000
         3         1         3      0.29795478
         3         1         4      0.00000000

         I         SYM. A    A   T(IA) [Beta-Beta]

         1         1         1      0.00044988
         1         1         2     -0.00000000
         1         1         3      0.00179177
         1         1         4      0.00000000
         2         1         1     -0.00000000
         2         1         2     -0.00049767
         2         1         3     -0.00000000
         2         1         4      0.00263616
         3         1         1      0.00000000
         3         1         2      0.00000000
         3         1         3      0.00000000
         3         1         4      0.00000000

 Doubles amplitudes (print threshold =  0.000E+00):

         I         J         SYM. A    SYM. B    A         B      T(IJ, AB) [Alpha-Alpha]

         2         1         1         1         1         1      0.00000000
         2         1         1         1         1         2      0.00000000
         2         1         1         1         1         3      0.00000000
         2         1         1         1         1         4      0.00000000
         2         1         1         1         2         1      0.00000000
         2         1         1         1         2         2     -0.00000000
         2         1         1         1         2         3      0.00005323
         2         1         1         1         2         4     -0.00000000
         2         1         1         1         3         1      0.00000000
         2         1         1         1         3         2     -0.00005323
         2         1         1         1         3         3      0.00000000
         2         1         1         1         3         4      0.00011213
         2         1         1         1         4         1      0.00000000
         2         1         1         1         4         2      0.00000000
         2         1         1         1         4         3     -0.00011213
         2         1         1         1         4         4      0.00000000
         2         1         2         2         1         1     -0.00000000
         2         1         2         2         1         2      0.00006150
         2         1         2         2         2         1     -0.00006150
         2         1         2         2         2         2      0.00000000
         2         1         3         3         1         1     -0.00000000
         2         1         3         3         1         2      0.00006150
         2         1         3         3         2         1     -0.00006150
         2         1         3         3         2         2      0.00000000
         3         1         1         1         1         1      0.00000000
         3         1         1         1         1         2      0.00000000
         3         1         1         1         1         3      0.00000000
         3         1         1         1         1         4      0.00000000
         3         1         1         1         2         1      0.00000000
         3         1         1         1         2         2     -0.00000000
         3         1         1         1         2         3     -0.00000000
         3         1         1         1         2         4     -0.00104054
         3         1         1         1         3         1      0.00000000
         3         1         1         1         3         2      0.00000000
         3         1         1         1         3         3     -0.00000000
         3         1         1         1         3         4     -0.00000000
         3         1         1         1         4         1      0.00000000
         3         1         1         1         4         2      0.00104054
         3         1         1         1         4         3      0.00000000
         3         1         1         1         4         4     -0.00000000
         3         1         2         2         1         1      0.00000000
         3         1         2         2         1         2     -0.00000000
         3         1         2         2         2         1      0.00000000
         3         1         2         2         2         2      0.00000000
         3         1         3         3         1         1      0.00000000
         3         1         3         3         1         2     -0.00000000
         3         1         3         3         2         1      0.00000000
         3         1         3         3         2         2      0.00000000
         3         2         1         1         1         1      0.00000000
         3         2         1         1         1         2      0.00000000
         3         2         1         1         1         3      0.00000000
         3         2         1         1         1         4      0.00000000
         3         2         1         1         2         1      0.00000000
         3         2         1         1         2         2     -0.00000000
         3         2         1         1         2         3     -0.00027097
         3         2         1         1         2         4      0.00000000
         3         2         1         1         3         1      0.00000000
         3         2         1         1         3         2      0.00027097
         3         2         1         1         3         3      0.00000000
         3         2         1         1         3         4     -0.00023838
         3         2         1         1         4         1      0.00000000
         3         2         1         1         4         2     -0.00000000
         3         2         1         1         4         3      0.00023838
         3         2         1         1         4         4      0.00000000
         3         2         2         2         1         1      0.00000000
         3         2         2         2         1         2     -0.00144409
         3         2         2         2         2         1      0.00144409
         3         2         2         2         2         2     -0.00000000
         3         2         3         3         1         1      0.00000000
         3         2         3         3         1         2     -0.00144409
         3         2         3         3         2         1      0.00144409
         3         2         3         3         2         2     -0.00000000

         I         J         SYM. A    SYM. B    A         B      T(IJ, AB) [Beta-Beta]

         2         1         1         1         1         1      0.00000000
         2         1         1         1         1         2     -0.00000347
         2         1         1         1         1         3      0.00000000
         2         1         1         1         1         4      0.00001492
         2         1         1         1         2         1      0.00000347
         2         1         1         1         2         2     -0.00000000
         2         1         1         1         2         3      0.00006278
         2         1         1         1         2         4     -0.00000000
         2         1         1         1         3         1     -0.00000000
         2         1         1         1         3         2     -0.00006278
         2         1         1         1         3         3      0.00000000
         2         1         1         1         3         4      0.00011490
         2         1         1         1         4         1     -0.00001492
         2         1         1         1         4         2      0.00000000
         2         1         1         1         4         3     -0.00011490
         2         1         1         1         4         4     -0.00000000
         2         1         2         2         1         1      0.00000000
         2         1         2         2         1         2      0.00006081
         2         1         2         2         2         1     -0.00006081
         2         1         2         2         2         2      0.00000000
         2         1         3         3         1         1      0.00000000
         2         1         3         3         1         2      0.00006081
         2         1         3         3         2         1     -0.00006081
         2         1         3         3         2         2      0.00000000

         I         J         SYM. A    SYM. B    A         B      T(IJ, AB) [Alpha-Beta]

         1         1         1         1         1         1      0.00000000
         1         1         1         1         1         2      0.00000000
         1         1         1         1         1         3      0.00000000
         1         1         1         1         1         4      0.00000000
         1         1         1         1         2         1     -0.00000000
         1         1         1         1         2         2     -0.00234078
         1         1         1         1         2         3      0.00000000
         1         1         1         1         2         4     -0.00118659
         1         1         1         1         3         1      0.00105403
         1         1         1         1         3         2      0.00000000
         1         1         1         1         3         3     -0.00112058
         1         1         1         1         3         4     -0.00000000
         1         1         1         1         4         1     -0.00000000
         1         1         1         1         4         2     -0.00113442
         1         1         1         1         4         3     -0.00000000
         1         1         1         1         4         4     -0.00269401
         1         1         2         2         1         1     -0.00082416
         1         1         2         2         1         2     -0.00000000
         1         1         2         2         2         1     -0.00000000
         1         1         2         2         2         2     -0.00105673
         1         1         3         3         1         1     -0.00082416
         1         1         3         3         1         2     -0.00000000
         1         1         3         3         2         1     -0.00000000
         1         1         3         3         2         2     -0.00105673
         2         1         1         1         1         1      0.00000000
         2         1         1         1         1         2      0.00000000
         2         1         1         1         1         3      0.00000000
         2         1         1         1         1         4      0.00000000
         2         1         1         1         2         1     -0.00237855
         2         1         1         1         2         2     -0.00000000
         2         1         1         1         2         3      0.00080312
         2         1         1         1         2         4      0.00000000
         2         1         1         1         3         1      0.00000000
         2         1         1         1         3         2      0.00148177
         2         1         1         1         3         3      0.00000000
         2         1         1         1         3         4     -0.00019251
         2         1         1         1         4         1     -0.00212437
         2         1         1         1         4         2      0.00000000
         2         1         1         1         4         3     -0.00093056
         2         1         1         1         4         4     -0.00000000
         2         1         2         2         1         1      0.00000000
         2         1         2         2         1         2     -0.00091914
         2         1         2         2         2         1     -0.00094267
         2         1         2         2         2         2     -0.00000000
         2         1         3         3         1         1      0.00000000
         2         1         3         3         1         2     -0.00091914
         2         1         3         3         2         1     -0.00094267
         2         1         3         3         2         2     -0.00000000
         1         2         1         1         1         1      0.00000000
         1         2         1         1         1         2      0.00000000
         1         2         1         1         1         3      0.00000000
         1         2         1         1         1         4      0.00000000
         1         2         1         1         2         1     -0.00238175
         1         2         1         1         2         2     -0.00000000
         1         2         1         1         2         3      0.00074744
         1         2         1         1         2         4      0.00000000
         1         2         1         1         3         1      0.00000000
         1         2         1         1         3         2      0.00154195
         1         2         1         1         3         3      0.00000000
         1         2         1         1         3         4     -0.00030293
         1         2         1         1         4         1     -0.00210942
         1         2         1         1         4         2      0.00000000
         1         2         1         1         4         3     -0.00081384
         1         2         1         1         4         4     -0.00000000
         1         2         2         2         1         1      0.00000000
         1         2         2         2         1         2     -0.00098635
         1         2         2         2         2         1     -0.00088755
         1         2         2         2         2         2     -0.00000000
         1         2         3         3         1         1      0.00000000
         1         2         3         3         1         2     -0.00098635
         1         2         3         3         2         1     -0.00088755
         1         2         3         3         2         2     -0.00000000
         2         2         1         1         1         1      0.00000000
         2         2         1         1         1         2      0.00000000
         2         2         1         1         1         3      0.00000000
         2         2         1         1         1         4      0.00000000
         2         2         1         1         2         1      0.00000000
         2         2         1         1         2         2     -0.00237097
         2         2         1         1         2         3     -0.00000000
         2         2         1         1         2         4     -0.00112835
         2         2         1         1         3         1      0.00107493
         2         2         1         1         3         2     -0.00000000
         2         2         1         1         3         3     -0.00100148
         2         2         1         1         3         4      0.00000000
         2         2         1         1         4         1      0.00000000
         2         2         1         1         4         2     -0.00106940
         2         2         1         1         4         3      0.00000000
         2         2         1         1         4         4     -0.00278797
         2         2         2         2         1         1     -0.00076738
         2         2         2         2         1         2      0.00000000
         2         2         2         2         2         1      0.00000000
         2         2         2         2         2         2     -0.00112881
         2         2         3         3         1         1     -0.00076738
         2         2         3         3         1         2      0.00000000
         2         2         3         3         2         1      0.00000000
         2         2         3         3         2         2     -0.00112881
         3         1         1         1         1         1      0.00000000
         3         1         1         1         1         2      0.00000000
         3         1         1         1         1         3      0.00000000
         3         1         1         1         1         4      0.00000000
         3         1         1         1         2         1      0.00000000
         3         1         1         1         2         2      0.00108594
         3         1         1         1         2         3      0.00000000
         3         1         1         1         2         4      0.00136928
         3         1         1         1         3         1     -0.00092962
         3         1         1         1         3         2      0.00000000
         3         1         1         1         3         3     -0.00190015
         3         1         1         1         3         4     -0.00000000
         3         1         1         1         4         1      0.00000000
         3         1         1         1         4         2      0.00241420
         3         1         1         1         4         3     -0.00000000
         3         1         1         1         4         4     -0.00064749
         3         1         2         2         1         1     -0.00335793
         3         1         2         2         1         2     -0.00000000
         3         1         2         2         2         1     -0.00000000
         3         1         2         2         2         2     -0.00246078
         3         1         3         3         1         1     -0.00335793
         3         1         3         3         1         2     -0.00000000
         3         1         3         3         2         1     -0.00000000
         3         1         3         3         2         2     -0.00246078
         3         2         1         1         1         1      0.00000000
         3         2         1         1         1         2      0.00000000
         3         2         1         1         1         3      0.00000000
         3         2         1         1         1         4      0.00000000
         3         2         1         1         2         1      0.00167859
         3         2         1         1         2         2     -0.00000000
         3         2         1         1         2         3      0.00031828
         3         2         1         1         2         4     -0.00000000
         3         2         1         1         3         1      0.00000000
         3         2         1         1         3         2      0.00064061
         3         2         1         1         3         3      0.00000000
         3         2         1         1         3         4     -0.00197919
         3         2         1         1         4         1      0.00164184
         3         2         1         1         4         2     -0.00000000
         3         2         1         1         4         3     -0.00177999
         3         2         1         1         4         4      0.00000000
         3         2         2         2         1         1      0.00000000
         3         2         2         2         1         2     -0.00365714
         3         2         2         2         2         1     -0.00221022
         3         2         2         2         2         2      0.00000000
         3         2         3         3         1         1      0.00000000
         3         2         3         3         1         2     -0.00365714
         3         2         3         3         2         1     -0.00221022
         3         2         3         3         2         2      0.00000000

 Spin contamination <S**2-Sz**2-Sz>     0.00000087


  Correlated core orbitals:             1.1       2.1
  Orbital energies:                    -2.6422   -2.6422

  UCISD core-core energy               -0.000508391118
  UCISD core-valence energy            -0.000270623044
  UCISD valence correlation energy     -0.013119094122


 RESULTS
 =======

  Reference energy                    -14.488571815334
  UCISD singles energy                 -0.013201846100
  UCISD pair energy                    -0.000696262185
  UCISD correlation energy             -0.013898108284

 !RHF-UCISD energy                    -14.502469923619

 Program statistics:

 Available memory in ccsd:                39999098
 Min. memory needed in ccsd:                  1849
 Max. memory used in ccsd:                    1981
 Max. memory used in cckext:                 34999 (15 integral passes)
 Max. memory used in cckint:                 66453 ( 1 integral passes)



 **********************************************************************************************************************************
 DATASETS  * FILE   NREC   LENGTH (MB)   RECORD NAMES
              1      19       29.94       500      700      610      900      950      970     1000      129      960     1100   
                                          VAR     GEOM    BASINP   SYMINP    ZMAT    AOBASIS   BASIS     P2S    ABASIS      S 
                                         1400     1410     1200     1210     1080     1600     1650     1300     1700   
                                           T        V       H0       H01     AOSYM     SMH    MOLCAS    ERIS     OPER   

              3       5       14.77       500      610      700     1000     2100   
                                          VAR    BASINP    GEOM     BASIS     RHF  

 PROGRAMS   *        TOTAL      CISD       INT   RESTART
 CPU TIMES  *         0.34      0.09      0.13      0.02
 REAL TIME  *         0.52 SEC
 DISK USED  *        49.42 MB
 **********************************************************************************************************************************
 Molecular orbitals read from record     2100.3  Type=RHF/CANONICAL (state 1.1)
 Occupation numbers read from record     2100.3  Type=RHF/RHF (state 1.1)
 Orbital energies read from record       2100.3  Type=RHF/CANONICAL (state 1.1)
 Redundancy group numbers read from rec  2100.3  Type=RHF/RHF (state 1.1)

 CISD/STO-3G energy=    -14.502469923619

            CISD
    -14.50246992
 **********************************************************************************************************************************
 Molpro calculation terminated
