
 Primary working directories    : /scr/yuriaoto/job.023680/molpro.rJnmSwTlPm
 Secondary working directories  : /scr/yuriaoto/job.023680/molpro.rJnmSwTlPm
 Wavefunction directory         : /scr/yuriaoto/job.023680/
 Main file repository           : /scr/yuriaoto/job.023680/molpro.rJnmSwTlPm/

 id        : yuriaoto

 Nodes             nprocs
 t-rex.ufabc.int.br    1

 Using customized tuning parameters: mindgm=8; mindgv=16; mindgc=1; mindgr=1; noblas=0; minvec=7
 default implementation of scratch files=df  


 Variables initialized (933), CPU time= 0.01 sec
 ***,
 memory,40,m
 gprint,orbital,basis,civector
 gthresh,thrprint=0,printci=0.0
 file,3,wfu.dat,old
 
 {ccsd,CC_NORM_MAX=10.0
 nosingle
 thresh,printci=0.0,ENERGY=1.0E-10,COEFF=1.0E-12
 print,ref=1
 core,0
 wf,6,1,0;
 }
 
 Commands  initialized (760), CPU time= 0.00 sec, 617 directives.
 Default parameters read. Elapsed time= 0.03 sec

 Checking input...
 Passed
1


                                         ***  PROGRAM SYSTEM MOLPRO  ***
                                       Copyright, TTI GmbH Stuttgart, 2015
                                    Version 2019.2 linked Abr  7 2019 15:10:35


 **********************************************************************************************************************************
 LABEL *                                                                                 
  64 bit serial version                                                                  DATE: 05-Jun-20          TIME: 23:29:40  
 **********************************************************************************************************************************

 SHA1:             3a8a58c585c929645742fb5a1b7541a4ad1da699
 **********************************************************************************************************************************


 THRESHOLDS:

 ZERO    =  1.00D-12  ONEINT  =  1.00D-12  TWOINT  =  1.00D-11  PREFAC  =  1.00D-14  XXXXXX  =  1.00D-09  EORDER  =  1.00D-04
 ENERGY  =  0.00D+00  ETEST   =  0.00D+00  EDENS   =  0.00D+00  THRDEDEF=  1.00D-06  GRADIENT=  1.00D-02  STEP    =  1.00D-03
 ORBITAL =  1.00D-05  CIVEC   =  1.00D-05  COEFF   =  1.00D-04  PRINTCI =  0.00D+00  PUNCHCI =  9.90D+01  OPTGRAD =  3.00D-04
 OPTENERG=  1.00D-06  OPTSTEP =  3.00D-04  THRGRAD =  1.00D-10  COMPRESS=  1.00D-11  VARMIN  =  1.00D-07  VARMAX  =  1.00D-03
 THRDOUB =  0.00D+00  THRDIV  =  1.00D-05  THRRED  =  1.00D-07  THRPSP  =  1.00D+00  THRDC   =  1.00D-10  THRCS   =  1.00D-10
 THRNRM  =  1.00D-08  THREQ   =  0.00D+00  THRDE   =  1.00D+00  THRREF  =  1.00D-05  SPARFAC =  1.00D+00  THRDLP  =  1.00D-07
 THRDIA  =  1.00D-10  THRDLS  =  1.00D-07  THRGPS  =  0.00D+00  THRKEX  =  0.00D+00  THRDIS  =  2.00D-01  THRVAR  =  1.00D-10
 THRLOC  =  1.00D-06  THRGAP  =  1.00D-06  THRLOCT = -1.00D+00  THRGAPT = -1.00D+00  THRORB  =  1.00D-06  THRMLTP =  0.00D+00
 THRCPQCI=  1.00D-10  KEXTA   =  0.00D+00  THRCOARS=  0.00D+00  SYMTOL  =  1.00D-06  GRADTOL =  1.00D-06  THROVL  =  1.00D-08
 THRORTH =  1.00D-08  GRID    =  1.00D-06  GRIDMAX =  1.00D-03  DTMAX   =  0.00D+00  THROCCDE=  1.00D-01  THROCCDE=  1.00D-01
 THRPRINT=  0.00D+00


 Variable memory set to   40000000 words,  buffer space 



 Permanent file  3  wfu.dat  assigned.  Implementation=df    Size= 14.09 MB


 PROGRAM * RESTART 


 Reading variables from file 3

 _FNUC           =      0.00000000
 _BASIS          =    CC-PVDZ
 _NELEC          =      6.00000000
 _PROGRAM        =    RHF-SCF
 _DMZ            =      0.00000000
 _DMX_SCF        =      0.00000000
 _DMY_SCF        =      0.00000000
 _DMZ_SCF        =      0.00000000
 _HOMO           =      3.10000000
 _EHOMO          =     -0.18089003
 _LUMO           =      4.10000000
 _ELUMO          =      0.00860175
 _ENERGY         =    -14.86923112
 _ENERGY_METHOD  =    RHF
 _ENERGY_BASIS   =    cc-pVDZ
 _ENUC           =      1.80000000
 _EPS1(1:14)     =     -2.44754692    -2.44716908    -0.18089003     0.00860175     0.04506451     0.08426832
                        0.14188695     0.17633377     0.25807888     0.31859242     0.31871808     0.39752665
                        0.45987531     0.94057167
 _EPS2(1:6)      =      0.03216991     0.06717723     0.16180289     0.21640604     0.35571558     0.51855068
 _EPS3(1:6)      =      0.03216991     0.06717723     0.16180289     0.21640604     0.35571558     0.51855068
 _EPS4(1:2)      =      0.31871808     0.39752665
 _IPROC_MPP      =      0.00000000
 _IPROC_MPPX     =      0.00000000
 _ORBITAL        =   2100.30000000
 _STATUS         =      1.00000000
 _DATE           =    21-Oct-19
 _LASTORB        =    RHF
 _OUTPUT         =    /scr/yuriaoto/job.022420/RHF.xml
 _PGROUP         =    C2v 
 _TIME           =    10:55:02
 R               =      5.00000000

 Geometry written to block  1 of record 700


 **********************************************************************************************************************************
 DATASETS  * FILE   NREC   LENGTH (MB)   RECORD NAMES
              3       5       14.77       500      610      700     1000     2100   
                                          VAR    BASINP    GEOM     BASIS     RHF  

 PROGRAMS   *        TOTAL   RESTART
 CPU TIMES  *         0.09      0.02
 REAL TIME  *         0.12 SEC
 DISK USED  *        26.84 MB
 **********************************************************************************************************************************


 Recomputing integrals since basis changed


 Using spherical harmonics

 Library entry LI     S cc-pVDZ              selected for orbital group  1
 Library entry LI     P cc-pVDZ              selected for orbital group  1
 Library entry LI     D cc-pVDZ              selected for orbital group  1


 PROGRAM * SEWARD (Integral evaluation for generally contracted gaussian basis sets)     Author: Roland Lindh, 1990

 Geometry written to block  1 of record 700

 Orientation using atomic masses  
 Molecule type: Linear
 User-specified symmetry elements: X,Y
 Symmetry elements: X,Y
 Rotational constants:      20.8009354     20.8009354      0.0000000 GHz  (calculated with average atomic masses)

 Point group  C2v 



 ATOMIC COORDINATES

 NR  ATOM    CHARGE       X              Y              Z

   1  LI1     3.00    0.000000000    0.000000000   -2.500000000
   2  LI2     3.00    0.000000000    0.000000000    2.500000000

 Bond lengths in Bohr (Angstrom)

 1-2  5.000000000
     ( 2.645886055)


 BASIS DATA

   Nr Sym  Nuc  Type         Exponents   Contraction coefficients

    1.1 A1    1  1s        1469.000000     0.000766   -0.000120    0.000000
    2.1 A1                  220.500000     0.005892   -0.000923    0.000000
    3.1 A1                   50.260000     0.029671   -0.004689    0.000000
                             14.240000     0.109180   -0.017682    0.000000
                              4.581000     0.282789   -0.048902    0.000000
                              1.580000     0.453123   -0.096009    0.000000
                              0.564000     0.274774   -0.136380    0.000000
                              0.073450     0.009751    0.575102    0.000000
                              0.028050    -0.003180    0.517661    1.000000
    4.1 A1    1  2pz          1.534000     0.022784    0.000000
    5.1 A1                    0.274900     0.139107    0.000000
                              0.073620     0.500375    0.000000
                              0.024030     0.508474    1.000000
    6.1 A1    1  3d0          0.114400     1.000000
    7.1 A1    1  3d2+         0.114400     1.000000
    8.1 A1    2  1s        1469.000000     0.000766   -0.000120    0.000000
    9.1 A1                  220.500000     0.005892   -0.000923    0.000000
   10.1 A1                   50.260000     0.029671   -0.004689    0.000000
                             14.240000     0.109180   -0.017682    0.000000
                              4.581000     0.282789   -0.048902    0.000000
                              1.580000     0.453123   -0.096009    0.000000
                              0.564000     0.274774   -0.136380    0.000000
                              0.073450     0.009751    0.575102    0.000000
                              0.028050    -0.003180    0.517661    1.000000
   11.1 A1    2  2pz          1.534000     0.022784    0.000000
   12.1 A1                    0.274900     0.139107    0.000000
                              0.073620     0.500375    0.000000
                              0.024030     0.508474    1.000000
   13.1 A1    2  3d0          0.114400     1.000000
   14.1 A1    2  3d2+         0.114400     1.000000
    1.2 B1    1  2px          1.534000     0.022784    0.000000
    2.2 B1                    0.274900     0.139107    0.000000
                              0.073620     0.500375    0.000000
                              0.024030     0.508474    1.000000
    3.2 B1    1  3d1+         0.114400     1.000000
    4.2 B1    2  2px          1.534000     0.022784    0.000000
    5.2 B1                    0.274900     0.139107    0.000000
                              0.073620     0.500375    0.000000
                              0.024030     0.508474    1.000000
    6.2 B1    2  3d1+         0.114400     1.000000
    1.3 B2    1  2py          1.534000     0.022784    0.000000
    2.3 B2                    0.274900     0.139107    0.000000
                              0.073620     0.500375    0.000000
                              0.024030     0.508474    1.000000
    3.3 B2    1  3d1-         0.114400     1.000000
    4.3 B2    2  2py          1.534000     0.022784    0.000000
    5.3 B2                    0.274900     0.139107    0.000000
                              0.073620     0.500375    0.000000
                              0.024030     0.508474    1.000000
    6.3 B2    2  3d1-         0.114400     1.000000
    1.4 A2    1  3d2-         0.114400     1.000000
    2.4 A2    2  3d2-         0.114400     1.000000

 NUCLEAR CHARGE:                    6
 NUMBER OF PRIMITIVE AOS:          54
 NUMBER OF SYMMETRY AOS:           52
 NUMBER OF CONTRACTIONS:           28   (   14A1  +    6B1  +    6B2  +    2A2  )
 NUMBER OF CORE ORBITALS:           2   (    2A1  +    0B1  +    0B2  +    0A2  )
 NUMBER OF VALENCE ORBITALS:        8   (    4A1  +    2B1  +    2B2  +    0A2  )


 NUCLEAR REPULSION ENERGY    1.80000000

 EXTRA SYMMETRY OF AOS IN SYMMETRY 1:   1 1 1 1 1 1 2 1 1 1   1 1 1 2

 Eigenvalues of metric

         1 0.256E-02 0.901E-02 0.313E-01 0.995E-01 0.101E+00 0.761E+00 0.792E+00 0.899E+00
         2 0.586E-01 0.135E+00 0.230E+00 0.973E+00 0.138E+01 0.322E+01
         3 0.586E-01 0.135E+00 0.230E+00 0.973E+00 0.138E+01 0.322E+01
         4 0.761E+00 0.124E+01


 Contracted 2-electron integrals neglected if value below      1.0D-11
 AO integral compression algorithm  1   Integral accuracy      1.0D-11

     0.262 MB (compressed) written to integral file (100.0%)


 NUMBER OF SORTED TWO-ELECTRON INTEGRALS:      24933.     BUFFER LENGTH:  32768
 NUMBER OF SEGMENTS:   1  SEGMENT LENGTH:      24933      RECORD LENGTH: 524288

 Memory used in sort:       0.58 MW

 SORT1 READ       32016. AND WROTE       21069. INTEGRALS IN      1 RECORDS. CPU TIME:     0.00 SEC, REAL TIME:     0.00 SEC
 SORT2 READ       21069. AND WROTE       24933. INTEGRALS IN      1 RECORDS. CPU TIME:     0.01 SEC, REAL TIME:     0.01 SEC

 FILE SIZES:   FILE 1:    30.2 MBYTE,  FILE 4:     4.2 MBYTE,   TOTAL:     34.5 MBYTE

 OPERATOR DM      FOR CENTER  0  COORDINATES:    0.000000    0.000000    0.000000


 **********************************************************************************************************************************
 DATASETS  * FILE   NREC   LENGTH (MB)   RECORD NAMES
              1      19       30.08       500      700      610      900      950      970     1000      129      960     1100   
                                          VAR     GEOM    BASINP   SYMINP    ZMAT    AOBASIS   BASIS     P2S    ABASIS      S 
                                         1400     1410     1200     1210     1080     1600     1650     1300     1700   
                                           T        V       H0       H01     AOSYM     SMH    MOLCAS    ERIS     OPER   

              3       5       14.77       500      610      700     1000     2100   
                                          VAR    BASINP    GEOM     BASIS     RHF  

 PROGRAMS   *        TOTAL       INT   RESTART
 CPU TIMES  *         0.22      0.13      0.02
 REAL TIME  *         0.34 SEC
 DISK USED  *        49.46 MB
 **********************************************************************************************************************************


 PROGRAM * CCSD (Closed-shell coupled cluster)     Authors: C. Hampel, H.-J. Werner, 1991, M. Deegan, P.J. Knowles, 1992


 Input parameters for THRESH:

 ENERGY   =    1.00D-10
 COEFF    =    1.00D-12
 PRINTCI  =    0.000000
 THRPRINT =    0.000000

 Convergence thresholds:  THRVAR = 1.00D-24  THRDEN = 1.00D-10

 Number of closed-shell orbitals:   3 (   3   0   0   0 )
 Number of external orbitals:      25 (  11   6   6   2 )

 Molecular orbitals read from record     2100.3  Type=RHF/CANONICAL (state 1.1)

 Number of N-1 electron functions:               0
 Number of N-2 electron functions:               6
 Number of singly external CSFs:                 0
 Number of doubly external CSFs:               924
 Total number of CSFs:                         925

 Length of J-op  integral file:               0.00 MB
 Length of K-op  integral file:               0.05 MB
 Length of 3-ext integral record:             0.00 MB

 Integral transformation finished. Total CPU:   0.00 sec, npass=  1  Memory used:   0.08 MW

 Reference energy:                    -14.86923112

 MP2 singlet pair energy:              -0.01997317
 MP2 triplet pair energy:              -0.00016887
 MP2 correlation energy:               -0.02014205
 MP2 total energy:                    -14.88937317

 SCS-MP2 correlation energy:           -0.02407288   (PS=  1.200000  PT=  0.333333)
 SCS-MP2 total energy:                -14.89330400

 ITER.      SQ.NORM     CORR.ENERGY   TOTAL ENERGY   ENERGY CHANGE        DEN1      VAR(S)    VAR(P)  DIIS     TIME  TIME/IT
   1      1.05138328    -0.02838780   -14.89761892    -0.00824576    -0.00442435  0.00D+00  0.28D-02  1  1     0.01     0.00
   2      1.08663228    -0.03176935   -14.90100047    -0.00338154    -0.00568234  0.00D+00  0.30D-03  2  2     0.01     0.00
   3      1.09817161    -0.03183841   -14.90106953    -0.00006906    -0.00117452  0.00D+00  0.53D-04  3  3     0.01     0.00
   4      1.10330639    -0.03189737   -14.90112849    -0.00005897    -0.00037104  0.00D+00  0.91D-05  4  4     0.01     0.00
   5      1.10509933    -0.03194866   -14.90117978    -0.00005129    -0.00013014  0.00D+00  0.11D-05  5  5     0.01     0.00
   6      1.10520772    -0.03192202   -14.90115315     0.00002664     0.00000269  0.00D+00  0.18D-06  6  6     0.02     0.00
   7      1.10528474    -0.03192507   -14.90115619    -0.00000305    -0.00000472  0.00D+00  0.25D-07  6  1     0.02     0.00
   8      1.10528492    -0.03192520   -14.90115632    -0.00000013     0.00000082  0.00D+00  0.46D-08  6  2     0.02     0.00
   9      1.10528994    -0.03192511   -14.90115623     0.00000009    -0.00000057  0.00D+00  0.45D-09  6  3     0.02     0.00
  10      1.10528547    -0.03192518   -14.90115630    -0.00000007     0.00000049  0.00D+00  0.51D-10  6  4     0.02     0.00
  11      1.10528353    -0.03192522   -14.90115634    -0.00000004     0.00000024  0.00D+00  0.10D-10  6  5     0.02     0.00
  12      1.10528223    -0.03192524   -14.90115637    -0.00000003     0.00000014  0.00D+00  0.26D-11  6  6     0.02     0.00
  13      1.10528160    -0.03192525   -14.90115637    -0.00000001     0.00000005  0.00D+00  0.55D-12  6  1     0.03     0.00
  14      1.10528139    -0.03192525   -14.90115637    -0.00000000     0.00000001  0.00D+00  0.13D-12  6  2     0.03     0.00
  15      1.10528130    -0.03192525   -14.90115637     0.00000000     0.00000000  0.00D+00  0.28D-13  6  3     0.03     0.00
  16      1.10528126    -0.03192525   -14.90115637    -0.00000000     0.00000000  0.00D+00  0.60D-14  6  4     0.03     0.00
  17      1.10528124    -0.03192525   -14.90115637    -0.00000000     0.00000000  0.00D+00  0.13D-14  6  5     0.03     0.00
  18      1.10528123    -0.03192525   -14.90115637    -0.00000000     0.00000000  0.00D+00  0.20D-15  6  6     0.03     0.00
  19      1.10528123    -0.03192525   -14.90115637     0.00000000    -0.00000000  0.00D+00  0.49D-16  6  1     0.03     0.00
  20      1.10528123    -0.03192525   -14.90115637     0.00000000    -0.00000000  0.00D+00  0.54D-17  6  3     0.04     0.00
  21      1.10528123    -0.03192525   -14.90115637     0.00000000    -0.00000000  0.00D+00  0.94D-18  6  2     0.04     0.00
  22      1.10528123    -0.03192525   -14.90115637    -0.00000000    -0.00000000  0.00D+00  0.36D-18  6  4     0.04     0.00
  23      1.10528123    -0.03192525   -14.90115637    -0.00000000     0.00000000  0.00D+00  0.34D-19  6  6     0.04     0.00
  24      1.10528123    -0.03192525   -14.90115637    -0.00000000     0.00000000  0.00D+00  0.50D-20  6  5     0.04     0.00
  25      1.10528123    -0.03192525   -14.90115637    -0.00000000     0.00000000  0.00D+00  0.82D-21  6  3     0.04     0.00
  26      1.10528123    -0.03192525   -14.90115637    -0.00000000     0.00000000  0.00D+00  0.16D-21  6  6     0.05     0.00
  27      1.10528123    -0.03192525   -14.90115637    -0.00000000     0.00000000  0.00D+00  0.14D-22  6  1     0.05     0.00
  28      1.10528123    -0.03192525   -14.90115637    -0.00000000     0.00000000  0.00D+00  0.27D-23  6  2     0.05     0.00
  29      1.10528123    -0.03192525   -14.90115637     0.00000000     0.00000000  0.00D+00  0.57D-24  6  4     0.05     0.00


 Doubles amplitudes (print threshold =  0.000E+00):

         I         J         SYM. A    SYM. B    A         B      T(IJ, AB)

         1         1         1         1         1         1     -0.00029089
         1         1         1         1         1         2      0.00000000
         1         1         1         1         1         3      0.00048232
         1         1         1         1         1         4     -0.00000000
         1         1         1         1         1         5     -0.00000000
         1         1         1         1         1         6     -0.00021405
         1         1         1         1         1         7     -0.00035137
         1         1         1         1         1         8      0.00000000
         1         1         1         1         1         9      0.00000000
         1         1         1         1         1        10      0.00000000
         1         1         1         1         1        11     -0.00047505
         1         1         1         1         2         1      0.00000000
         1         1         1         1         2         2     -0.00002995
         1         1         1         1         2         3     -0.00000000
         1         1         1         1         2         4      0.00014475
         1         1         1         1         2         5     -0.00007342
         1         1         1         1         2         6     -0.00000000
         1         1         1         1         2         7      0.00000000
         1         1         1         1         2         8     -0.00000000
         1         1         1         1         2         9     -0.00000000
         1         1         1         1         2        10     -0.00011910
         1         1         1         1         2        11     -0.00000000
         1         1         1         1         3         1      0.00048232
         1         1         1         1         3         2     -0.00000000
         1         1         1         1         3         3     -0.00073104
         1         1         1         1         3         4      0.00000000
         1         1         1         1         3         5      0.00000000
         1         1         1         1         3         6      0.00021823
         1         1         1         1         3         7      0.00053549
         1         1         1         1         3         8      0.00000000
         1         1         1         1         3         9     -0.00000000
         1         1         1         1         3        10     -0.00000000
         1         1         1         1         3        11      0.00053739
         1         1         1         1         4         1     -0.00000000
         1         1         1         1         4         2      0.00014475
         1         1         1         1         4         3      0.00000000
         1         1         1         1         4         4     -0.00040017
         1         1         1         1         4         5      0.00024118
         1         1         1         1         4         6      0.00000000
         1         1         1         1         4         7     -0.00000000
         1         1         1         1         4         8     -0.00000000
         1         1         1         1         4         9      0.00000000
         1         1         1         1         4        10      0.00023584
         1         1         1         1         4        11      0.00000000
         1         1         1         1         5         1     -0.00000000
         1         1         1         1         5         2     -0.00007342
         1         1         1         1         5         3      0.00000000
         1         1         1         1         5         4      0.00024118
         1         1         1         1         5         5     -0.00070661
         1         1         1         1         5         6     -0.00000000
         1         1         1         1         5         7     -0.00000000
         1         1         1         1         5         8      0.00000000
         1         1         1         1         5         9      0.00000000
         1         1         1         1         5        10      0.00009155
         1         1         1         1         5        11     -0.00000000
         1         1         1         1         6         1     -0.00021405
         1         1         1         1         6         2     -0.00000000
         1         1         1         1         6         3      0.00021823
         1         1         1         1         6         4      0.00000000
         1         1         1         1         6         5     -0.00000000
         1         1         1         1         6         6     -0.00064581
         1         1         1         1         6         7     -0.00003441
         1         1         1         1         6         8      0.00000000
         1         1         1         1         6         9     -0.00000000
         1         1         1         1         6        10     -0.00000000
         1         1         1         1         6        11     -0.00117482
         1         1         1         1         7         1     -0.00035137
         1         1         1         1         7         2      0.00000000
         1         1         1         1         7         3      0.00053549
         1         1         1         1         7         4     -0.00000000
         1         1         1         1         7         5     -0.00000000
         1         1         1         1         7         6     -0.00003441
         1         1         1         1         7         7     -0.00045720
         1         1         1         1         7         8      0.00000000
         1         1         1         1         7         9     -0.00000000
         1         1         1         1         7        10      0.00000000
         1         1         1         1         7        11     -0.00003036
         1         1         1         1         8         1      0.00000000
         1         1         1         1         8         2     -0.00000000
         1         1         1         1         8         3      0.00000000
         1         1         1         1         8         4     -0.00000000
         1         1         1         1         8         5      0.00000000
         1         1         1         1         8         6      0.00000000
         1         1         1         1         8         7      0.00000000
         1         1         1         1         8         8     -0.00000166
         1         1         1         1         8         9      0.00000000
         1         1         1         1         8        10     -0.00000000
         1         1         1         1         8        11     -0.00000000
         1         1         1         1         9         1      0.00000000
         1         1         1         1         9         2     -0.00000000
         1         1         1         1         9         3     -0.00000000
         1         1         1         1         9         4      0.00000000
         1         1         1         1         9         5      0.00000000
         1         1         1         1         9         6     -0.00000000
         1         1         1         1         9         7     -0.00000000
         1         1         1         1         9         8      0.00000000
         1         1         1         1         9         9     -0.00000572
         1         1         1         1         9        10     -0.00000000
         1         1         1         1         9        11      0.00000000
         1         1         1         1        10         1      0.00000000
         1         1         1         1        10         2     -0.00011910
         1         1         1         1        10         3     -0.00000000
         1         1         1         1        10         4      0.00023584
         1         1         1         1        10         5      0.00009155
         1         1         1         1        10         6     -0.00000000
         1         1         1         1        10         7      0.00000000
         1         1         1         1        10         8     -0.00000000
         1         1         1         1        10         9     -0.00000000
         1         1         1         1        10        10     -0.00030971
         1         1         1         1        10        11     -0.00000000
         1         1         1         1        11         1     -0.00047505
         1         1         1         1        11         2     -0.00000000
         1         1         1         1        11         3      0.00053739
         1         1         1         1        11         4      0.00000000
         1         1         1         1        11         5     -0.00000000
         1         1         1         1        11         6     -0.00117482
         1         1         1         1        11         7     -0.00003036
         1         1         1         1        11         8     -0.00000000
         1         1         1         1        11         9      0.00000000
         1         1         1         1        11        10     -0.00000000
         1         1         1         1        11        11     -0.00285175
         1         1         2         2         1         1      0.00011311
         1         1         2         2         1         2     -0.00000000
         1         1         2         2         1         3     -0.00009477
         1         1         2         2         1         4     -0.00000000
         1         1         2         2         1         5      0.00007854
         1         1         2         2         1         6     -0.00000000
         1         1         2         2         2         1     -0.00000000
         1         1         2         2         2         2     -0.00000723
         1         1         2         2         2         3     -0.00000000
         1         1         2         2         2         4     -0.00009086
         1         1         2         2         2         5      0.00000000
         1         1         2         2         2         6     -0.00005588
         1         1         2         2         3         1     -0.00009477
         1         1         2         2         3         2     -0.00000000
         1         1         2         2         3         3     -0.00061829
         1         1         2         2         3         4     -0.00000000
         1         1         2         2         3         5      0.00015401
         1         1         2         2         3         6     -0.00000000
         1         1         2         2         4         1     -0.00000000
         1         1         2         2         4         2     -0.00009086
         1         1         2         2         4         3     -0.00000000
         1         1         2         2         4         4     -0.00078343
         1         1         2         2         4         5      0.00000000
         1         1         2         2         4         6     -0.00049207
         1         1         2         2         5         1      0.00007854
         1         1         2         2         5         2      0.00000000
         1         1         2         2         5         3      0.00015401
         1         1         2         2         5         4      0.00000000
         1         1         2         2         5         5     -0.00002523
         1         1         2         2         5         6      0.00000000
         1         1         2         2         6         1     -0.00000000
         1         1         2         2         6         2     -0.00005588
         1         1         2         2         6         3     -0.00000000
         1         1         2         2         6         4     -0.00049207
         1         1         2         2         6         5      0.00000000
         1         1         2         2         6         6     -0.00032705
         1         1         3         3         1         1      0.00011311
         1         1         3         3         1         2     -0.00000000
         1         1         3         3         1         3     -0.00009477
         1         1         3         3         1         4     -0.00000000
         1         1         3         3         1         5      0.00007854
         1         1         3         3         1         6     -0.00000000
         1         1         3         3         2         1     -0.00000000
         1         1         3         3         2         2     -0.00000723
         1         1         3         3         2         3     -0.00000000
         1         1         3         3         2         4     -0.00009086
         1         1         3         3         2         5      0.00000000
         1         1         3         3         2         6     -0.00005588
         1         1         3         3         3         1     -0.00009477
         1         1         3         3         3         2     -0.00000000
         1         1         3         3         3         3     -0.00061829
         1         1         3         3         3         4     -0.00000000
         1         1         3         3         3         5      0.00015401
         1         1         3         3         3         6     -0.00000000
         1         1         3         3         4         1     -0.00000000
         1         1         3         3         4         2     -0.00009086
         1         1         3         3         4         3     -0.00000000
         1         1         3         3         4         4     -0.00078343
         1         1         3         3         4         5      0.00000000
         1         1         3         3         4         6     -0.00049207
         1         1         3         3         5         1      0.00007854
         1         1         3         3         5         2      0.00000000
         1         1         3         3         5         3      0.00015401
         1         1         3         3         5         4      0.00000000
         1         1         3         3         5         5     -0.00002523
         1         1         3         3         5         6      0.00000000
         1         1         3         3         6         1     -0.00000000
         1         1         3         3         6         2     -0.00005588
         1         1         3         3         6         3     -0.00000000
         1         1         3         3         6         4     -0.00049207
         1         1         3         3         6         5      0.00000000
         1         1         3         3         6         6     -0.00032705
         1         1         4         4         1         1     -0.00000166
         1         1         4         4         1         2      0.00000000
         1         1         4         4         2         1      0.00000000
         1         1         4         4         2         2     -0.00000572
         2         1         1         1         1         1      0.00000000
         2         1         1         1         1         2      0.00004456
         2         1         1         1         1         3     -0.00000000
         2         1         1         1         1         4     -0.00002954
         2         1         1         1         1         5     -0.00046466
         2         1         1         1         1         6      0.00000000
         2         1         1         1         1         7      0.00000000
         2         1         1         1         1         8     -0.00000000
         2         1         1         1         1         9      0.00000000
         2         1         1         1         1        10      0.00023528
         2         1         1         1         1        11      0.00000000
         2         1         1         1         2         1      0.00005197
         2         1         1         1         2         2     -0.00000000
         2         1         1         1         2         3     -0.00009920
         2         1         1         1         2         4      0.00000000
         2         1         1         1         2         5     -0.00000000
         2         1         1         1         2         6     -0.00018020
         2         1         1         1         2         7      0.00013483
         2         1         1         1         2         8     -0.00000000
         2         1         1         1         2         9      0.00000000
         2         1         1         1         2        10     -0.00000000
         2         1         1         1         2        11     -0.00035997
         2         1         1         1         3         1     -0.00000000
         2         1         1         1         3         2     -0.00009233
         2         1         1         1         3         3      0.00000000
         2         1         1         1         3         4      0.00010861
         2         1         1         1         3         5      0.00058618
         2         1         1         1         3         6      0.00000000
         2         1         1         1         3         7      0.00000000
         2         1         1         1         3         8     -0.00000000
         2         1         1         1         3         9      0.00000000
         2         1         1         1         3        10     -0.00037170
         2         1         1         1         3        11     -0.00000000
         2         1         1         1         4         1     -0.00004515
         2         1         1         1         4         2      0.00000000
         2         1         1         1         4         3      0.00012318
         2         1         1         1         4         4     -0.00000000
         2         1         1         1         4         5      0.00000000
         2         1         1         1         4         6      0.00042491
         2         1         1         1         4         7     -0.00023927
         2         1         1         1         4         8      0.00000000
         2         1         1         1         4         9     -0.00000000
         2         1         1         1         4        10      0.00000000
         2         1         1         1         4        11      0.00093671
         2         1         1         1         5         1     -0.00045194
         2         1         1         1         5         2     -0.00000000
         2         1         1         1         5         3      0.00057413
         2         1         1         1         5         4      0.00000000
         2         1         1         1         5         5     -0.00000000
         2         1         1         1         5         6     -0.00055765
         2         1         1         1         5         7     -0.00033724
         2         1         1         1         5         8      0.00000000
         2         1         1         1         5         9      0.00000000
         2         1         1         1         5        10     -0.00000000
         2         1         1         1         5        11     -0.00104221
         2         1         1         1         6         1      0.00000000
         2         1         1         1         6         2     -0.00020363
         2         1         1         1         6         3      0.00000000
         2         1         1         1         6         4      0.00047428
         2         1         1         1         6         5     -0.00059655
         2         1         1         1         6         6      0.00000000
         2         1         1         1         6         7      0.00000000
         2         1         1         1         6         8     -0.00000000
         2         1         1         1         6         9      0.00000000
         2         1         1         1         6        10     -0.00016029
         2         1         1         1         6        11     -0.00000000
         2         1         1         1         7         1      0.00000000
         2         1         1         1         7         2      0.00013538
         2         1         1         1         7         3      0.00000000
         2         1         1         1         7         4     -0.00024009
         2         1         1         1         7         5     -0.00033688
         2         1         1         1         7         6      0.00000000
         2         1         1         1         7         7      0.00000000
         2         1         1         1         7         8     -0.00000000
         2         1         1         1         7         9      0.00000000
         2         1         1         1         7        10      0.00029944
         2         1         1         1         7        11     -0.00000000
         2         1         1         1         8         1     -0.00000000
         2         1         1         1         8         2     -0.00000000
         2         1         1         1         8         3     -0.00000000
         2         1         1         1         8         4      0.00000000
         2         1         1         1         8         5      0.00000000
         2         1         1         1         8         6     -0.00000000
         2         1         1         1         8         7     -0.00000000
         2         1         1         1         8         8     -0.00000000
         2         1         1         1         8         9     -0.00001319
         2         1         1         1         8        10      0.00000000
         2         1         1         1         8        11      0.00000000
         2         1         1         1         9         1      0.00000000
         2         1         1         1         9         2      0.00000000
         2         1         1         1         9         3      0.00000000
         2         1         1         1         9         4     -0.00000000
         2         1         1         1         9         5      0.00000000
         2         1         1         1         9         6      0.00000000
         2         1         1         1         9         7      0.00000000
         2         1         1         1         9         8     -0.00001367
         2         1         1         1         9         9     -0.00000000
         2         1         1         1         9        10      0.00000000
         2         1         1         1         9        11     -0.00000000
         2         1         1         1        10         1      0.00024615
         2         1         1         1        10         2     -0.00000000
         2         1         1         1        10         3     -0.00038169
         2         1         1         1        10         4      0.00000000
         2         1         1         1        10         5     -0.00000000
         2         1         1         1        10         6     -0.00012542
         2         1         1         1        10         7      0.00029888
         2         1         1         1        10         8      0.00000000
         2         1         1         1        10         9      0.00000000
         2         1         1         1        10        10     -0.00000000
         2         1         1         1        10        11     -0.00013246
         2         1         1         1        11         1      0.00000000
         2         1         1         1        11         2     -0.00040063
         2         1         1         1        11         3     -0.00000000
         2         1         1         1        11         4      0.00102317
         2         1         1         1        11         5     -0.00110973
         2         1         1         1        11         6     -0.00000000
         2         1         1         1        11         7     -0.00000000
         2         1         1         1        11         8      0.00000000
         2         1         1         1        11         9     -0.00000000
         2         1         1         1        11        10     -0.00019444
         2         1         1         1        11        11      0.00000000
         2         1         2         2         1         1     -0.00000000
         2         1         2         2         1         2     -0.00002597
         2         1         2         2         1         3     -0.00000000
         2         1         2         2         1         4     -0.00021904
         2         1         2         2         1         5     -0.00000000
         2         1         2         2         1         6     -0.00013825
         2         1         2         2         2         1     -0.00002807
         2         1         2         2         2         2      0.00000000
         2         1         2         2         2         3     -0.00009338
         2         1         2         2         2         4      0.00000000
         2         1         2         2         2         5      0.00001848
         2         1         2         2         2         6      0.00000000
         2         1         2         2         3         1     -0.00000000
         2         1         2         2         3         2     -0.00008764
         2         1         2         2         3         3     -0.00000000
         2         1         2         2         3         4     -0.00072435
         2         1         2         2         3         5     -0.00000000
         2         1         2         2         3         6     -0.00045996
         2         1         2         2         4         1     -0.00023320
         2         1         2         2         4         2      0.00000000
         2         1         2         2         4         3     -0.00076321
         2         1         2         2         4         4      0.00000000
         2         1         2         2         4         5      0.00014485
         2         1         2         2         4         6      0.00000000
         2         1         2         2         5         1     -0.00000000
         2         1         2         2         5         2      0.00001909
         2         1         2         2         5         3     -0.00000000
         2         1         2         2         5         4      0.00015003
         2         1         2         2         5         5      0.00000000
         2         1         2         2         5         6      0.00007742
         2         1         2         2         6         1     -0.00014826
         2         1         2         2         6         2      0.00000000
         2         1         2         2         6         3     -0.00048734
         2         1         2         2         6         4      0.00000000
         2         1         2         2         6         5      0.00007312
         2         1         2         2         6         6      0.00000000
         2         1         3         3         1         1     -0.00000000
         2         1         3         3         1         2     -0.00002597
         2         1         3         3         1         3     -0.00000000
         2         1         3         3         1         4     -0.00021904
         2         1         3         3         1         5     -0.00000000
         2         1         3         3         1         6     -0.00013825
         2         1         3         3         2         1     -0.00002807
         2         1         3         3         2         2      0.00000000
         2         1         3         3         2         3     -0.00009338
         2         1         3         3         2         4      0.00000000
         2         1         3         3         2         5      0.00001848
         2         1         3         3         2         6      0.00000000
         2         1         3         3         3         1     -0.00000000
         2         1         3         3         3         2     -0.00008764
         2         1         3         3         3         3     -0.00000000
         2         1         3         3         3         4     -0.00072435
         2         1         3         3         3         5     -0.00000000
         2         1         3         3         3         6     -0.00045996
         2         1         3         3         4         1     -0.00023320
         2         1         3         3         4         2      0.00000000
         2         1         3         3         4         3     -0.00076321
         2         1         3         3         4         4      0.00000000
         2         1         3         3         4         5      0.00014485
         2         1         3         3         4         6      0.00000000
         2         1         3         3         5         1     -0.00000000
         2         1         3         3         5         2      0.00001909
         2         1         3         3         5         3     -0.00000000
         2         1         3         3         5         4      0.00015003
         2         1         3         3         5         5      0.00000000
         2         1         3         3         5         6      0.00007742
         2         1         3         3         6         1     -0.00014826
         2         1         3         3         6         2      0.00000000
         2         1         3         3         6         3     -0.00048734
         2         1         3         3         6         4      0.00000000
         2         1         3         3         6         5      0.00007312
         2         1         3         3         6         6      0.00000000
         2         1         4         4         1         1     -0.00000000
         2         1         4         4         1         2     -0.00001319
         2         1         4         4         2         1     -0.00001367
         2         1         4         4         2         2     -0.00000000
         2         2         1         1         1         1     -0.00029617
         2         2         1         1         1         2     -0.00000000
         2         2         1         1         1         3      0.00048716
         2         2         1         1         1         4      0.00000000
         2         2         1         1         1         5      0.00000000
         2         2         1         1         1         6     -0.00022926
         2         2         1         1         1         7     -0.00035077
         2         2         1         1         1         8     -0.00000000
         2         2         1         1         1         9     -0.00000000
         2         2         1         1         1        10     -0.00000000
         2         2         1         1         1        11     -0.00050153
         2         2         1         1         2         1     -0.00000000
         2         2         1         1         2         2     -0.00001819
         2         2         1         1         2         3      0.00000000
         2         2         1         1         2         4      0.00012001
         2         2         1         1         2         5     -0.00005221
         2         2         1         1         2         6      0.00000000
         2         2         1         1         2         7     -0.00000000
         2         2         1         1         2         8     -0.00000000
         2         2         1         1         2         9      0.00000000
         2         2         1         1         2        10     -0.00010215
         2         2         1         1         2        11      0.00000000
         2         2         1         1         3         1      0.00048716
         2         2         1         1         3         2      0.00000000
         2         2         1         1         3         3     -0.00073547
         2         2         1         1         3         4     -0.00000000
         2         2         1         1         3         5     -0.00000000
         2         2         1         1         3         6      0.00023220
         2         2         1         1         3         7      0.00053482
         2         2         1         1         3         8      0.00000000
         2         2         1         1         3         9     -0.00000000
         2         2         1         1         3        10      0.00000000
         2         2         1         1         3        11      0.00056135
         2         2         1         1         4         1      0.00000000
         2         2         1         1         4         2      0.00012001
         2         2         1         1         4         3     -0.00000000
         2         2         1         1         4         4     -0.00034854
         2         2         1         1         4         5      0.00019715
         2         2         1         1         4         6     -0.00000000
         2         2         1         1         4         7      0.00000000
         2         2         1         1         4         8      0.00000000
         2         2         1         1         4         9     -0.00000000
         2         2         1         1         4        10      0.00019968
         2         2         1         1         4        11     -0.00000000
         2         2         1         1         5         1      0.00000000
         2         2         1         1         5         2     -0.00005221
         2         2         1         1         5         3     -0.00000000
         2         2         1         1         5         4      0.00019715
         2         2         1         1         5         5     -0.00067080
         2         2         1         1         5         6      0.00000000
         2         2         1         1         5         7      0.00000000
         2         2         1         1         5         8      0.00000000
         2         2         1         1         5         9      0.00000000
         2         2         1         1         5        10      0.00012237
         2         2         1         1         5        11      0.00000000
         2         2         1         1         6         1     -0.00022926
         2         2         1         1         6         2      0.00000000
         2         2         1         1         6         3      0.00023220
         2         2         1         1         6         4     -0.00000000
         2         2         1         1         6         5      0.00000000
         2         2         1         1         6         6     -0.00069479
         2         2         1         1         6         7     -0.00003201
         2         2         1         1         6         8      0.00000000
         2         2         1         1         6         9     -0.00000000
         2         2         1         1         6        10      0.00000000
         2         2         1         1         6        11     -0.00126264
         2         2         1         1         7         1     -0.00035077
         2         2         1         1         7         2     -0.00000000
         2         2         1         1         7         3      0.00053482
         2         2         1         1         7         4      0.00000000
         2         2         1         1         7         5      0.00000000
         2         2         1         1         7         6     -0.00003201
         2         2         1         1         7         7     -0.00045696
         2         2         1         1         7         8      0.00000000
         2         2         1         1         7         9     -0.00000000
         2         2         1         1         7        10     -0.00000000
         2         2         1         1         7        11     -0.00002522
         2         2         1         1         8         1     -0.00000000
         2         2         1         1         8         2     -0.00000000
         2         2         1         1         8         3      0.00000000
         2         2         1         1         8         4      0.00000000
         2         2         1         1         8         5      0.00000000
         2         2         1         1         8         6      0.00000000
         2         2         1         1         8         7      0.00000000
         2         2         1         1         8         8     -0.00000075
         2         2         1         1         8         9      0.00000000
         2         2         1         1         8        10      0.00000000
         2         2         1         1         8        11     -0.00000000
         2         2         1         1         9         1     -0.00000000
         2         2         1         1         9         2      0.00000000
         2         2         1         1         9         3     -0.00000000
         2         2         1         1         9         4     -0.00000000
         2         2         1         1         9         5      0.00000000
         2         2         1         1         9         6     -0.00000000
         2         2         1         1         9         7     -0.00000000
         2         2         1         1         9         8      0.00000000
         2         2         1         1         9         9     -0.00000594
         2         2         1         1         9        10     -0.00000000
         2         2         1         1         9        11      0.00000000
         2         2         1         1        10         1     -0.00000000
         2         2         1         1        10         2     -0.00010215
         2         2         1         1        10         3      0.00000000
         2         2         1         1        10         4      0.00019968
         2         2         1         1        10         5      0.00012237
         2         2         1         1        10         6      0.00000000
         2         2         1         1        10         7     -0.00000000
         2         2         1         1        10         8      0.00000000
         2         2         1         1        10         9     -0.00000000
         2         2         1         1        10        10     -0.00028333
         2         2         1         1        10        11      0.00000000
         2         2         1         1        11         1     -0.00050153
         2         2         1         1        11         2      0.00000000
         2         2         1         1        11         3      0.00056135
         2         2         1         1        11         4     -0.00000000
         2         2         1         1        11         5      0.00000000
         2         2         1         1        11         6     -0.00126264
         2         2         1         1        11         7     -0.00002522
         2         2         1         1        11         8     -0.00000000
         2         2         1         1        11         9      0.00000000
         2         2         1         1        11        10      0.00000000
         2         2         1         1        11        11     -0.00301125
         2         2         2         2         1         1      0.00011868
         2         2         2         2         1         2      0.00000000
         2         2         2         2         1         3     -0.00007873
         2         2         2         2         1         4      0.00000000
         2         2         2         2         1         5      0.00008106
         2         2         2         2         1         6      0.00000000
         2         2         2         2         2         1      0.00000000
         2         2         2         2         2         2     -0.00000801
         2         2         2         2         2         3      0.00000000
         2         2         2         2         2         4     -0.00009626
         2         2         2         2         2         5     -0.00000000
         2         2         2         2         2         6     -0.00005931
         2         2         2         2         3         1     -0.00007873
         2         2         2         2         3         2      0.00000000
         2         2         2         2         3         3     -0.00057414
         2         2         2         2         3         4      0.00000000
         2         2         2         2         3         5      0.00016105
         2         2         2         2         3         6      0.00000000
         2         2         2         2         4         1      0.00000000
         2         2         2         2         4         2     -0.00009626
         2         2         2         2         4         3      0.00000000
         2         2         2         2         4         4     -0.00081976
         2         2         2         2         4         5     -0.00000000
         2         2         2         2         4         6     -0.00051610
         2         2         2         2         5         1      0.00008106
         2         2         2         2         5         2     -0.00000000
         2         2         2         2         5         3      0.00016105
         2         2         2         2         5         4     -0.00000000
         2         2         2         2         5         5     -0.00002439
         2         2         2         2         5         6     -0.00000000
         2         2         2         2         6         1      0.00000000
         2         2         2         2         6         2     -0.00005931
         2         2         2         2         6         3      0.00000000
         2         2         2         2         6         4     -0.00051610
         2         2         2         2         6         5     -0.00000000
         2         2         2         2         6         6     -0.00034365
         2         2         3         3         1         1      0.00011868
         2         2         3         3         1         2      0.00000000
         2         2         3         3         1         3     -0.00007873
         2         2         3         3         1         4      0.00000000
         2         2         3         3         1         5      0.00008106
         2         2         3         3         1         6      0.00000000
         2         2         3         3         2         1      0.00000000
         2         2         3         3         2         2     -0.00000801
         2         2         3         3         2         3      0.00000000
         2         2         3         3         2         4     -0.00009626
         2         2         3         3         2         5     -0.00000000
         2         2         3         3         2         6     -0.00005931
         2         2         3         3         3         1     -0.00007873
         2         2         3         3         3         2      0.00000000
         2         2         3         3         3         3     -0.00057414
         2         2         3         3         3         4      0.00000000
         2         2         3         3         3         5      0.00016105
         2         2         3         3         3         6      0.00000000
         2         2         3         3         4         1      0.00000000
         2         2         3         3         4         2     -0.00009626
         2         2         3         3         4         3      0.00000000
         2         2         3         3         4         4     -0.00081976
         2         2         3         3         4         5     -0.00000000
         2         2         3         3         4         6     -0.00051610
         2         2         3         3         5         1      0.00008106
         2         2         3         3         5         2     -0.00000000
         2         2         3         3         5         3      0.00016105
         2         2         3         3         5         4     -0.00000000
         2         2         3         3         5         5     -0.00002439
         2         2         3         3         5         6     -0.00000000
         2         2         3         3         6         1      0.00000000
         2         2         3         3         6         2     -0.00005931
         2         2         3         3         6         3      0.00000000
         2         2         3         3         6         4     -0.00051610
         2         2         3         3         6         5     -0.00000000
         2         2         3         3         6         6     -0.00034365
         2         2         4         4         1         1     -0.00000075
         2         2         4         4         1         2      0.00000000
         2         2         4         4         2         1      0.00000000
         2         2         4         4         2         2     -0.00000594
         3         1         1         1         1         1      0.00011020
         3         1         1         1         1         2      0.00000000
         3         1         1         1         1         3     -0.00018111
         3         1         1         1         1         4     -0.00000000
         3         1         1         1         1         5     -0.00000000
         3         1         1         1         1         6     -0.00048644
         3         1         1         1         1         7      0.00033812
         3         1         1         1         1         8      0.00000000
         3         1         1         1         1         9      0.00000000
         3         1         1         1         1        10     -0.00000000
         3         1         1         1         1        11     -0.00084344
         3         1         1         1         2         1      0.00000000
         3         1         1         1         2         2     -0.00046513
         3         1         1         1         2         3      0.00000000
         3         1         1         1         2         4      0.00092984
         3         1         1         1         2         5     -0.00090434
         3         1         1         1         2         6      0.00000000
         3         1         1         1         2         7      0.00000000
         3         1         1         1         2         8      0.00000000
         3         1         1         1         2         9      0.00000000
         3         1         1         1         2        10     -0.00043396
         3         1         1         1         2        11     -0.00000000
         3         1         1         1         3         1     -0.00025280
         3         1         1         1         3         2      0.00000000
         3         1         1         1         3         3      0.00034548
         3         1         1         1         3         4     -0.00000000
         3         1         1         1         3         5     -0.00000000
         3         1         1         1         3         6      0.00029530
         3         1         1         1         3         7     -0.00039258
         3         1         1         1         3         8      0.00000000
         3         1         1         1         3         9     -0.00000000
         3         1         1         1         3        10     -0.00000000
         3         1         1         1         3        11      0.00059293
         3         1         1         1         4         1     -0.00000000
         3         1         1         1         4         2      0.00066392
         3         1         1         1         4         3     -0.00000000
         3         1         1         1         4         4     -0.00133638
         3         1         1         1         4         5      0.00134007
         3         1         1         1         4         6     -0.00000000
         3         1         1         1         4         7     -0.00000000
         3         1         1         1         4         8     -0.00000000
         3         1         1         1         4         9      0.00000000
         3         1         1         1         4        10      0.00072388
         3         1         1         1         4        11      0.00000000
         3         1         1         1         5         1     -0.00000000
         3         1         1         1         5         2     -0.00036170
         3         1         1         1         5         3     -0.00000000
         3         1         1         1         5         4      0.00075496
         3         1         1         1         5         5     -0.00051493
         3         1         1         1         5         6     -0.00000000
         3         1         1         1         5         7     -0.00000000
         3         1         1         1         5         8     -0.00000000
         3         1         1         1         5         9     -0.00000000
         3         1         1         1         5        10     -0.00033978
         3         1         1         1         5        11      0.00000000
         3         1         1         1         6         1     -0.00018202
         3         1         1         1         6         2      0.00000000
         3         1         1         1         6         3      0.00017361
         3         1         1         1         6         4     -0.00000000
         3         1         1         1         6         5     -0.00000000
         3         1         1         1         6         6     -0.00080354
         3         1         1         1         6         7      0.00015706
         3         1         1         1         6         8      0.00000000
         3         1         1         1         6         9      0.00000000
         3         1         1         1         6        10     -0.00000000
         3         1         1         1         6        11     -0.00124649
         3         1         1         1         7         1      0.00032505
         3         1         1         1         7         2      0.00000000
         3         1         1         1         7         3     -0.00037721
         3         1         1         1         7         4     -0.00000000
         3         1         1         1         7         5     -0.00000000
         3         1         1         1         7         6      0.00036128
         3         1         1         1         7         7      0.00014127
         3         1         1         1         7         8      0.00000000
         3         1         1         1         7         9      0.00000000
         3         1         1         1         7        10     -0.00000000
         3         1         1         1         7        11      0.00030860
         3         1         1         1         8         1      0.00000000
         3         1         1         1         8         2      0.00000000
         3         1         1         1         8         3      0.00000000
         3         1         1         1         8         4     -0.00000000
         3         1         1         1         8         5     -0.00000000
         3         1         1         1         8         6      0.00000000
         3         1         1         1         8         7      0.00000000
         3         1         1         1         8         8     -0.00018937
         3         1         1         1         8         9     -0.00000000
         3         1         1         1         8        10     -0.00000000
         3         1         1         1         8        11     -0.00000000
         3         1         1         1         9         1      0.00000000
         3         1         1         1         9         2      0.00000000
         3         1         1         1         9         3     -0.00000000
         3         1         1         1         9         4      0.00000000
         3         1         1         1         9         5     -0.00000000
         3         1         1         1         9         6      0.00000000
         3         1         1         1         9         7      0.00000000
         3         1         1         1         9         8     -0.00000000
         3         1         1         1         9         9     -0.00014686
         3         1         1         1         9        10     -0.00000000
         3         1         1         1         9        11     -0.00000000
         3         1         1         1        10         1     -0.00000000
         3         1         1         1        10         2     -0.00040778
         3         1         1         1        10         3     -0.00000000
         3         1         1         1        10         4      0.00084360
         3         1         1         1        10         5     -0.00087078
         3         1         1         1        10         6     -0.00000000
         3         1         1         1        10         7     -0.00000000
         3         1         1         1        10         8     -0.00000000
         3         1         1         1        10         9     -0.00000000
         3         1         1         1        10        10     -0.00059280
         3         1         1         1        10        11      0.00000000
         3         1         1         1        11         1     -0.00018872
         3         1         1         1        11         2     -0.00000000
         3         1         1         1        11         3      0.00015398
         3         1         1         1        11         4      0.00000000
         3         1         1         1        11         5      0.00000000
         3         1         1         1        11         6     -0.00088669
         3         1         1         1        11         7      0.00006117
         3         1         1         1        11         8     -0.00000000
         3         1         1         1        11         9     -0.00000000
         3         1         1         1        11        10      0.00000000
         3         1         1         1        11        11     -0.00127732
         3         1         2         2         1         1     -0.00046964
         3         1         2         2         1         2      0.00000000
         3         1         2         2         1         3     -0.00116962
         3         1         2         2         1         4      0.00000000
         3         1         2         2         1         5      0.00002288
         3         1         2         2         1         6      0.00000000
         3         1         2         2         2         1      0.00000000
         3         1         2         2         2         2     -0.00008615
         3         1         2         2         2         3      0.00000000
         3         1         2         2         2         4     -0.00055236
         3         1         2         2         2         5     -0.00000000
         3         1         2         2         2         6     -0.00027076
         3         1         2         2         3         1     -0.00067421
         3         1         2         2         3         2     -0.00000000
         3         1         2         2         3         3     -0.00183161
         3         1         2         2         3         4      0.00000000
         3         1         2         2         3         5      0.00007615
         3         1         2         2         3         6      0.00000000
         3         1         2         2         4         1      0.00000000
         3         1         2         2         4         2     -0.00025185
         3         1         2         2         4         3      0.00000000
         3         1         2         2         4         4     -0.00164550
         3         1         2         2         4         5     -0.00000000
         3         1         2         2         4         6     -0.00089377
         3         1         2         2         5         1     -0.00024371
         3         1         2         2         5         2     -0.00000000
         3         1         2         2         5         3     -0.00047653
         3         1         2         2         5         4     -0.00000000
         3         1         2         2         5         5     -0.00024313
         3         1         2         2         5         6     -0.00000000
         3         1         2         2         6         1      0.00000000
         3         1         2         2         6         2     -0.00010990
         3         1         2         2         6         3      0.00000000
         3         1         2         2         6         4     -0.00077528
         3         1         2         2         6         5     -0.00000000
         3         1         2         2         6         6     -0.00058724
         3         1         3         3         1         1     -0.00046964
         3         1         3         3         1         2      0.00000000
         3         1         3         3         1         3     -0.00116962
         3         1         3         3         1         4      0.00000000
         3         1         3         3         1         5      0.00002288
         3         1         3         3         1         6      0.00000000
         3         1         3         3         2         1      0.00000000
         3         1         3         3         2         2     -0.00008615
         3         1         3         3         2         3      0.00000000
         3         1         3         3         2         4     -0.00055236
         3         1         3         3         2         5     -0.00000000
         3         1         3         3         2         6     -0.00027076
         3         1         3         3         3         1     -0.00067421
         3         1         3         3         3         2     -0.00000000
         3         1         3         3         3         3     -0.00183161
         3         1         3         3         3         4      0.00000000
         3         1         3         3         3         5      0.00007615
         3         1         3         3         3         6      0.00000000
         3         1         3         3         4         1      0.00000000
         3         1         3         3         4         2     -0.00025185
         3         1         3         3         4         3      0.00000000
         3         1         3         3         4         4     -0.00164550
         3         1         3         3         4         5      0.00000000
         3         1         3         3         4         6     -0.00089377
         3         1         3         3         5         1     -0.00024371
         3         1         3         3         5         2     -0.00000000
         3         1         3         3         5         3     -0.00047653
         3         1         3         3         5         4      0.00000000
         3         1         3         3         5         5     -0.00024313
         3         1         3         3         5         6     -0.00000000
         3         1         3         3         6         1      0.00000000
         3         1         3         3         6         2     -0.00010990
         3         1         3         3         6         3      0.00000000
         3         1         3         3         6         4     -0.00077528
         3         1         3         3         6         5     -0.00000000
         3         1         3         3         6         6     -0.00058724
         3         1         4         4         1         1     -0.00018937
         3         1         4         4         1         2     -0.00000000
         3         1         4         4         2         1     -0.00000000
         3         1         4         4         2         2     -0.00014686
         3         2         1         1         1         1     -0.00000000
         3         2         1         1         1         2     -0.00028451
         3         2         1         1         1         3     -0.00000000
         3         2         1         1         1         4      0.00060137
         3         2         1         1         1         5     -0.00023532
         3         2         1         1         1         6     -0.00000000
         3         2         1         1         1         7     -0.00000000
         3         2         1         1         1         8      0.00000000
         3         2         1         1         1         9     -0.00000000
         3         2         1         1         1        10     -0.00034641
         3         2         1         1         1        11     -0.00000000
         3         2         1         1         2         1     -0.00033635
         3         2         1         1         2         2     -0.00000000
         3         2         1         1         2         3      0.00033051
         3         2         1         1         2         4      0.00000000
         3         2         1         1         2         5     -0.00000000
         3         2         1         1         2         6     -0.00102023
[...]
         3         2         3         3         3         2     -0.00026716
         3         2         3         3         3         3     -0.00000000
         3         2         3         3         3         4     -0.00181300
         3         2         3         3         3         5      0.00000000
         3         2         3         3         3         6     -0.00112305
         3         2         3         3         4         1     -0.00044112
         3         2         3         3         4         2      0.00000000
         3         2         3         3         4         3     -0.00145820
         3         2         3         3         4         4      0.00000000
         3         2         3         3         4         5      0.00028943
         3         2         3         3         4         6      0.00000000
         3         2         3         3         5         1      0.00000000
         3         2         3         3         5         2     -0.00003996
         3         2         3         3         5         3     -0.00000000
         3         2         3         3         5         4     -0.00030264
         3         2         3         3         5         5      0.00000000
         3         2         3         3         5         6     -0.00039090
         3         2         3         3         6         1     -0.00023404
         3         2         3         3         6         2      0.00000000
         3         2         3         3         6         3     -0.00074656
         3         2         3         3         6         4      0.00000000
         3         2         3         3         6         5      0.00000067
         3         2         3         3         6         6      0.00000000
         3         2         4         4         1         1      0.00000000
         3         2         4         4         1         2     -0.00017945
         3         2         4         4         2         1     -0.00013165
         3         2         4         4         2         2      0.00000000
         3         3         1         1         1         1     -0.07859496
         3         3         1         1         1         2      0.00000000
         3         3         1         1         1         3      0.05614896
         3         3         1         1         1         4     -0.00000000
         3         3         1         1         1         5     -0.00000000
         3         3         1         1         1         6     -0.00305633
         3         3         1         1         1         7     -0.03106431
         3         3         1         1         1         8      0.00000000
         3         3         1         1         1         9     -0.00000000
         3         3         1         1         1        10     -0.00000000
         3         3         1         1         1        11      0.00689107
         3         3         1         1         2         1      0.00000000
         3         3         1         1         2         2     -0.05197437
         3         3         1         1         2         3     -0.00000000
         3         3         1         1         2         4      0.05757347
         3         3         1         1         2         5     -0.00688880
         3         3         1         1         2         6      0.00000000
         3         3         1         1         2         7      0.00000000
         3         3         1         1         2         8      0.00000000
         3         3         1         1         2         9     -0.00000000
         3         3         1         1         2        10     -0.01895953
         3         3         1         1         2        11      0.00000000
         3         3         1         1         3         1      0.05614896
         3         3         1         1         3         2     -0.00000000
         3         3         1         1         3         3     -0.04176800
         3         3         1         1         3         4      0.00000000
         3         3         1         1         3         5      0.00000000
         3         3         1         1         3         6      0.00168206
         3         3         1         1         3         7      0.02479376
         3         3         1         1         3         8     -0.00000000
         3         3         1         1         3         9      0.00000000
         3         3         1         1         3        10      0.00000000
         3         3         1         1         3        11     -0.00627797
         3         3         1         1         4         1     -0.00000000
         3         3         1         1         4         2      0.05757347
         3         3         1         1         4         3      0.00000000
         3         3         1         1         4         4     -0.07104508
         3         3         1         1         4         5      0.00351907
         3         3         1         1         4         6      0.00000000
         3         3         1         1         4         7      0.00000000
         3         3         1         1         4         8      0.00000000
         3         3         1         1         4         9      0.00000000
         3         3         1         1         4        10      0.02485059
         3         3         1         1         4        11     -0.00000000
         3         3         1         1         5         1     -0.00000000
         3         3         1         1         5         2     -0.00688880
         3         3         1         1         5         3      0.00000000
         3         3         1         1         5         4      0.00351907
         3         3         1         1         5         5     -0.00464682
         3         3         1         1         5         6      0.00000000
         3         3         1         1         5         7      0.00000000
         3         3         1         1         5         8      0.00000000
         3         3         1         1         5         9     -0.00000000
         3         3         1         1         5        10     -0.00147452
         3         3         1         1         5        11     -0.00000000
         3         3         1         1         6         1     -0.00305633
         3         3         1         1         6         2      0.00000000
         3         3         1         1         6         3      0.00168206
         3         3         1         1         6         4      0.00000000
         3         3         1         1         6         5      0.00000000
         3         3         1         1         6         6     -0.00057573
         3         3         1         1         6         7     -0.00022292
         3         3         1         1         6         8     -0.00000000
         3         3         1         1         6         9     -0.00000000
         3         3         1         1         6        10     -0.00000000
         3         3         1         1         6        11     -0.00004136
         3         3         1         1         7         1     -0.03106431
         3         3         1         1         7         2      0.00000000
         3         3         1         1         7         3      0.02479376
         3         3         1         1         7         4      0.00000000
         3         3         1         1         7         5      0.00000000
         3         3         1         1         7         6     -0.00022292
         3         3         1         1         7         7     -0.01767987
         3         3         1         1         7         8     -0.00000000
         3         3         1         1         7         9     -0.00000000
         3         3         1         1         7        10      0.00000000
         3         3         1         1         7        11      0.00573630
         3         3         1         1         8         1      0.00000000
         3         3         1         1         8         2      0.00000000
         3         3         1         1         8         3     -0.00000000
         3         3         1         1         8         4      0.00000000
         3         3         1         1         8         5      0.00000000
         3         3         1         1         8         6     -0.00000000
         3         3         1         1         8         7     -0.00000000
         3         3         1         1         8         8     -0.00632219
         3         3         1         1         8         9     -0.00000000
         3         3         1         1         8        10     -0.00000000
         3         3         1         1         8        11     -0.00000000
         3         3         1         1         9         1     -0.00000000
         3         3         1         1         9         2     -0.00000000
         3         3         1         1         9         3      0.00000000
         3         3         1         1         9         4      0.00000000
         3         3         1         1         9         5     -0.00000000
         3         3         1         1         9         6     -0.00000000
         3         3         1         1         9         7     -0.00000000
         3         3         1         1         9         8     -0.00000000
         3         3         1         1         9         9     -0.00201311
         3         3         1         1         9        10     -0.00000000
         3         3         1         1         9        11     -0.00000000
         3         3         1         1        10         1     -0.00000000
         3         3         1         1        10         2     -0.01895953
         3         3         1         1        10         3      0.00000000
         3         3         1         1        10         4      0.02485059
         3         3         1         1        10         5     -0.00147452
         3         3         1         1        10         6      0.00000000
         3         3         1         1        10         7      0.00000000
         3         3         1         1        10         8     -0.00000000
         3         3         1         1        10         9     -0.00000000
         3         3         1         1        10        10     -0.01139698
         3         3         1         1        10        11     -0.00000000
         3         3         1         1        11         1      0.00689107
         3         3         1         1        11         2      0.00000000
         3         3         1         1        11         3     -0.00627797
         3         3         1         1        11         4     -0.00000000
         3         3         1         1        11         5     -0.00000000
         3         3         1         1        11         6     -0.00004136
         3         3         1         1        11         7      0.00573630
         3         3         1         1        11         8     -0.00000000
         3         3         1         1        11         9     -0.00000000
         3         3         1         1        11        10     -0.00000000
         3         3         1         1        11        11     -0.00339290
         3         3         2         2         1         1     -0.11969269
         3         3         2         2         1         2     -0.00000000
         3         3         2         2         1         3     -0.08310167
         3         3         2         2         1         4      0.00000000
         3         3         2         2         1         5     -0.03153717
         3         3         2         2         1         6     -0.00000000
         3         3         2         2         2         1     -0.00000000
         3         3         2         2         2         2     -0.00125944
         3         3         2         2         2         3     -0.00000000
         3         3         2         2         2         4     -0.00200325
         3         3         2         2         2         5      0.00000000
         3         3         2         2         2         6     -0.00132399
         3         3         2         2         3         1     -0.08310167
         3         3         2         2         3         2     -0.00000000
         3         3         2         2         3         3     -0.06032233
         3         3         2         2         3         4     -0.00000000
         3         3         2         2         3         5     -0.02445712
         3         3         2         2         3         6     -0.00000000
         3         3         2         2         4         1      0.00000000
         3         3         2         2         4         2     -0.00200325
         3         3         2         2         4         3     -0.00000000
         3         3         2         2         4         4     -0.00382192
         3         3         2         2         4         5      0.00000000
         3         3         2         2         4         6     -0.00253450
         3         3         2         2         5         1     -0.03153717
         3         3         2         2         5         2      0.00000000
         3         3         2         2         5         3     -0.02445712
         3         3         2         2         5         4      0.00000000
         3         3         2         2         5         5     -0.01312803
         3         3         2         2         5         6     -0.00000000
         3         3         2         2         6         1     -0.00000000
         3         3         2         2         6         2     -0.00132399
         3         3         2         2         6         3     -0.00000000
         3         3         2         2         6         4     -0.00253450
         3         3         2         2         6         5     -0.00000000
         3         3         2         2         6         6     -0.00230788
         3         3         3         3         1         1     -0.11969269
         3         3         3         3         1         2     -0.00000000
         3         3         3         3         1         3     -0.08310167
         3         3         3         3         1         4      0.00000000
         3         3         3         3         1         5     -0.03153717
         3         3         3         3         1         6     -0.00000000
         3         3         3         3         2         1     -0.00000000
         3         3         3         3         2         2     -0.00125944
         3         3         3         3         2         3     -0.00000000
         3         3         3         3         2         4     -0.00200325
         3         3         3         3         2         5      0.00000000
         3         3         3         3         2         6     -0.00132399
         3         3         3         3         3         1     -0.08310167
         3         3         3         3         3         2     -0.00000000
         3         3         3         3         3         3     -0.06032233
         3         3         3         3         3         4     -0.00000000
         3         3         3         3         3         5     -0.02445712
         3         3         3         3         3         6     -0.00000000
         3         3         3         3         4         1      0.00000000
         3         3         3         3         4         2     -0.00200325
         3         3         3         3         4         3     -0.00000000
         3         3         3         3         4         4     -0.00382192
         3         3         3         3         4         5      0.00000000
         3         3         3         3         4         6     -0.00253450
         3         3         3         3         5         1     -0.03153717
         3         3         3         3         5         2      0.00000000
         3         3         3         3         5         3     -0.02445712
         3         3         3         3         5         4      0.00000000
         3         3         3         3         5         5     -0.01312803
         3         3         3         3         5         6     -0.00000000
         3         3         3         3         6         1     -0.00000000
         3         3         3         3         6         2     -0.00132399
         3         3         3         3         6         3     -0.00000000
         3         3         3         3         6         4     -0.00253450
         3         3         3         3         6         5     -0.00000000
         3         3         3         3         6         6     -0.00230788
         3         3         4         4         1         1     -0.00632219
         3         3         4         4         1         2     -0.00000000
         3         3         4         4         2         1     -0.00000000
         3         3         4         4         2         2     -0.00201311


 RESULTS
 =======

  Reference energy                    -14.869231121669

  Correlated core orbitals:             1.1       2.1
  Orbital energies:                    -2.4475   -2.4472

  CCD core-core energy                 -0.000390201126
  CCD core-valence energy              -0.000565128578
  CCD valence correlation energy       -0.030969923391

  CCD singlet pair energy              -0.031768185002
  CCD triplet pair energy              -0.000157068093
  CCD correlation energy               -0.031925253096

 !CCD total energy                    -14.901156374764

 Timing summary (sec):

 STEP                 CPU(USER)    SYS     CPU(TOT)    WALL
 CCSD iterations         0.05      0.02      0.07      0.07

 Program statistics:

 Available memory in ccsd:                39999164
 Min. memory needed in ccsd:                  7205
 Max. memory used in ccsd:                    7604
 Max. memory used in cckext:                 39463 (29 integral passes)



 **********************************************************************************************************************************
 DATASETS  * FILE   NREC   LENGTH (MB)   RECORD NAMES
              1      20       30.16       500      700      610      900      950      970     1000      129      960     1100   
                                          VAR     GEOM    BASINP   SYMINP    ZMAT    AOBASIS   BASIS     P2S    ABASIS      S 
                                         1400     1410     1200     1210     1080     1600     1650     1300     1700     1380   
                                           T        V       H0       H01     AOSYM     SMH    MOLCAS    ERIS     OPER     JKOP   

              3       5       14.77       500      610      700     1000     2100   
                                          VAR    BASINP    GEOM     BASIS     RHF  

 PROGRAMS   *        TOTAL      CCSD       INT   RESTART
 CPU TIMES  *         0.34      0.12      0.13      0.02
 REAL TIME  *         0.48 SEC
 DISK USED  *        49.46 MB
 **********************************************************************************************************************************
 Molecular orbitals read from record     2100.3  Type=RHF/CANONICAL (state 1.1)
 Occupation numbers read from record     2100.3  Type=RHF/RHF (state 1.1)
 Orbital energies read from record       2100.3  Type=RHF/CANONICAL (state 1.1)
 Redundancy group numbers read from rec  2100.3  Type=RHF/RHF (state 1.1)

 CCSD/cc-pVDZ energy=    -14.901156374764

            CCSD
    -14.90115637
 **********************************************************************************************************************************
 Molpro calculation terminated
