
 Primary working directories    : /scr/yuriaoto/job.022422/molpro.HAVp4DEcmD
 Secondary working directories  : /scr/yuriaoto/job.022422/molpro.HAVp4DEcmD
 Wavefunction directory         : /scr/yuriaoto/job.022422/
 Main file repository           : /scr/yuriaoto/job.022422/molpro.HAVp4DEcmD/

 id        : yuriaoto

 Nodes             nprocs
 t-rex.ufabc.int.br    1

 Using customized tuning parameters: mindgm=8; mindgv=16; mindgc=1; mindgr=1; noblas=0; minvec=7
 default implementation of scratch files=df  


 Variables initialized (933), CPU time= 0.00 sec
 ***,
 memory,40,m
 gprint,orbital,basis,civector
 gthresh,thrprint=0,printci=0.0
 file,3,wfu.dat,old
 
 {cisd,CC_NORM_MAX=10.0
 thresh,printci=0.0,ENERGY=1.0E-10,COEFF=1.0E-12
 print,ref=1
 core,0
 wf,6,1,0;
 }
 
 Commands  initialized (760), CPU time= 0.00 sec, 617 directives.
 Default parameters read. Elapsed time= 0.03 sec

 Checking input...
 Passed
1


                                         ***  PROGRAM SYSTEM MOLPRO  ***
                                       Copyright, TTI GmbH Stuttgart, 2015
                                    Version 2019.2 linked Abr  7 2019 15:10:35


 **********************************************************************************************************************************
 LABEL *                                                                                 
  64 bit serial version                                                                  DATE: 21-Oct-19          TIME: 10:55:08  
 **********************************************************************************************************************************

 SHA1:             3a8a58c585c929645742fb5a1b7541a4ad1da699
 **********************************************************************************************************************************


 THRESHOLDS:

 ZERO    =  1.00D-12  ONEINT  =  1.00D-12  TWOINT  =  1.00D-11  PREFAC  =  1.00D-14  XXXXXX  =  1.00D-09  EORDER  =  1.00D-04
 ENERGY  =  0.00D+00  ETEST   =  0.00D+00  EDENS   =  0.00D+00  THRDEDEF=  1.00D-06  GRADIENT=  1.00D-02  STEP    =  1.00D-03
 ORBITAL =  1.00D-05  CIVEC   =  1.00D-05  COEFF   =  1.00D-04  PRINTCI =  0.00D+00  PUNCHCI =  9.90D+01  OPTGRAD =  3.00D-04
 OPTENERG=  1.00D-06  OPTSTEP =  3.00D-04  THRGRAD =  1.00D-10  COMPRESS=  1.00D-11  VARMIN  =  1.00D-07  VARMAX  =  1.00D-03
 THRDOUB =  0.00D+00  THRDIV  =  1.00D-05  THRRED  =  1.00D-07  THRPSP  =  1.00D+00  THRDC   =  1.00D-10  THRCS   =  1.00D-10
 THRNRM  =  1.00D-08  THREQ   =  0.00D+00  THRDE   =  1.00D+00  THRREF  =  1.00D-05  SPARFAC =  1.00D+00  THRDLP  =  1.00D-07
 THRDIA  =  1.00D-10  THRDLS  =  1.00D-07  THRGPS  =  0.00D+00  THRKEX  =  0.00D+00  THRDIS  =  2.00D-01  THRVAR  =  1.00D-10
 THRLOC  =  1.00D-06  THRGAP  =  1.00D-06  THRLOCT = -1.00D+00  THRGAPT = -1.00D+00  THRORB  =  1.00D-06  THRMLTP =  0.00D+00
 THRCPQCI=  1.00D-10  KEXTA   =  0.00D+00  THRCOARS=  0.00D+00  SYMTOL  =  1.00D-06  GRADTOL =  1.00D-06  THROVL  =  1.00D-08
 THRORTH =  1.00D-08  GRID    =  1.00D-06  GRIDMAX =  1.00D-03  DTMAX   =  0.00D+00  THROCCDE=  1.00D-01  THROCCDE=  1.00D-01
 THRPRINT=  0.00D+00


 Variable memory set to   40000000 words,  buffer space 



 Permanent file  3  wfu.dat  assigned.  Implementation=df    Size= 14.09 MB


 PROGRAM * RESTART 


 Reading variables from file 3

 _FNUC           =      0.00000000
 _BASIS          =    CC-PVDZ
 _NELEC          =      6.00000000
 _PROGRAM        =    RHF-SCF
 _DMZ            =      0.00000000
 _DMX_SCF        =      0.00000000
 _DMY_SCF        =      0.00000000
 _DMZ_SCF        =      0.00000000
 _HOMO           =      3.10000000
 _EHOMO          =     -0.18089003
 _LUMO           =      4.10000000
 _ELUMO          =      0.00860175
 _ENERGY         =    -14.86923112
 _ENERGY_METHOD  =    RHF
 _ENERGY_BASIS   =    cc-pVDZ
 _ENUC           =      1.80000000
 _EPS1(1:14)     =     -2.44754692    -2.44716908    -0.18089003     0.00860175     0.04506451     0.08426832
                        0.14188695     0.17633377     0.25807888     0.31859242     0.31871808     0.39752665
                        0.45987531     0.94057167
 _EPS2(1:6)      =      0.03216991     0.06717723     0.16180289     0.21640604     0.35571558     0.51855068
 _EPS3(1:6)      =      0.03216991     0.06717723     0.16180289     0.21640604     0.35571558     0.51855068
 _EPS4(1:2)      =      0.31871808     0.39752665
 _IPROC_MPP      =      0.00000000
 _IPROC_MPPX     =      0.00000000
 _ORBITAL        =   2100.30000000
 _STATUS         =      1.00000000
 _LASTORB        =    RHF
 _OUTPUT         =    /scr/yuriaoto/job.022420/RHF.xml
 _PGROUP         =    C2v 
 _TIME           =    10:55:02
 R               =      5.00000000

 Geometry written to block  1 of record 700


 **********************************************************************************************************************************
 DATASETS  * FILE   NREC   LENGTH (MB)   RECORD NAMES
              3       5       14.77       500      610      700     1000     2100   
                                          VAR    BASINP    GEOM     BASIS     RHF  

 PROGRAMS   *        TOTAL   RESTART
 CPU TIMES  *         0.08      0.01
 REAL TIME  *         0.12 SEC
 DISK USED  *        26.84 MB
 **********************************************************************************************************************************


 Recomputing integrals since basis changed


 Using spherical harmonics

 Library entry LI     S cc-pVDZ              selected for orbital group  1
 Library entry LI     P cc-pVDZ              selected for orbital group  1
 Library entry LI     D cc-pVDZ              selected for orbital group  1


 PROGRAM * SEWARD (Integral evaluation for generally contracted gaussian basis sets)     Author: Roland Lindh, 1990

 Geometry written to block  1 of record 700

 Orientation using atomic masses  
 Molecule type: Linear
 User-specified symmetry elements: X,Y
 Symmetry elements: X,Y
 Rotational constants:      20.8009354     20.8009354      0.0000000 GHz  (calculated with average atomic masses)

 Point group  C2v 



 ATOMIC COORDINATES

 NR  ATOM    CHARGE       X              Y              Z

   1  LI1     3.00    0.000000000    0.000000000   -2.500000000
   2  LI2     3.00    0.000000000    0.000000000    2.500000000

 Bond lengths in Bohr (Angstrom)

 1-2  5.000000000
     ( 2.645886055)


 BASIS DATA

   Nr Sym  Nuc  Type         Exponents   Contraction coefficients

    1.1 A1    1  1s        1469.000000     0.000766   -0.000120    0.000000
    2.1 A1                  220.500000     0.005892   -0.000923    0.000000
    3.1 A1                   50.260000     0.029671   -0.004689    0.000000
                             14.240000     0.109180   -0.017682    0.000000
                              4.581000     0.282789   -0.048902    0.000000
                              1.580000     0.453123   -0.096009    0.000000
                              0.564000     0.274774   -0.136380    0.000000
                              0.073450     0.009751    0.575102    0.000000
                              0.028050    -0.003180    0.517661    1.000000
    4.1 A1    1  2pz          1.534000     0.022784    0.000000
    5.1 A1                    0.274900     0.139107    0.000000
                              0.073620     0.500375    0.000000
                              0.024030     0.508474    1.000000
    6.1 A1    1  3d0          0.114400     1.000000
    7.1 A1    1  3d2+         0.114400     1.000000
    8.1 A1    2  1s        1469.000000     0.000766   -0.000120    0.000000
    9.1 A1                  220.500000     0.005892   -0.000923    0.000000
   10.1 A1                   50.260000     0.029671   -0.004689    0.000000
                             14.240000     0.109180   -0.017682    0.000000
                              4.581000     0.282789   -0.048902    0.000000
                              1.580000     0.453123   -0.096009    0.000000
                              0.564000     0.274774   -0.136380    0.000000
                              0.073450     0.009751    0.575102    0.000000
                              0.028050    -0.003180    0.517661    1.000000
   11.1 A1    2  2pz          1.534000     0.022784    0.000000
   12.1 A1                    0.274900     0.139107    0.000000
                              0.073620     0.500375    0.000000
                              0.024030     0.508474    1.000000
   13.1 A1    2  3d0          0.114400     1.000000
   14.1 A1    2  3d2+         0.114400     1.000000
    1.2 B1    1  2px          1.534000     0.022784    0.000000
    2.2 B1                    0.274900     0.139107    0.000000
                              0.073620     0.500375    0.000000
                              0.024030     0.508474    1.000000
    3.2 B1    1  3d1+         0.114400     1.000000
    4.2 B1    2  2px          1.534000     0.022784    0.000000
    5.2 B1                    0.274900     0.139107    0.000000
                              0.073620     0.500375    0.000000
                              0.024030     0.508474    1.000000
    6.2 B1    2  3d1+         0.114400     1.000000
    1.3 B2    1  2py          1.534000     0.022784    0.000000
    2.3 B2                    0.274900     0.139107    0.000000
                              0.073620     0.500375    0.000000
                              0.024030     0.508474    1.000000
    3.3 B2    1  3d1-         0.114400     1.000000
    4.3 B2    2  2py          1.534000     0.022784    0.000000
    5.3 B2                    0.274900     0.139107    0.000000
                              0.073620     0.500375    0.000000
                              0.024030     0.508474    1.000000
    6.3 B2    2  3d1-         0.114400     1.000000
    1.4 A2    1  3d2-         0.114400     1.000000
    2.4 A2    2  3d2-         0.114400     1.000000

 NUCLEAR CHARGE:                    6
 NUMBER OF PRIMITIVE AOS:          54
 NUMBER OF SYMMETRY AOS:           52
 NUMBER OF CONTRACTIONS:           28   (   14A1  +    6B1  +    6B2  +    2A2  )
 NUMBER OF CORE ORBITALS:           2   (    2A1  +    0B1  +    0B2  +    0A2  )
 NUMBER OF VALENCE ORBITALS:        8   (    4A1  +    2B1  +    2B2  +    0A2  )


 NUCLEAR REPULSION ENERGY    1.80000000

 EXTRA SYMMETRY OF AOS IN SYMMETRY 1:   1 1 1 1 1 1 2 1 1 1   1 1 1 2

 Eigenvalues of metric

         1 0.256E-02 0.901E-02 0.313E-01 0.995E-01 0.101E+00 0.761E+00 0.792E+00 0.899E+00
         2 0.586E-01 0.135E+00 0.230E+00 0.973E+00 0.138E+01 0.322E+01
         3 0.586E-01 0.135E+00 0.230E+00 0.973E+00 0.138E+01 0.322E+01
         4 0.761E+00 0.124E+01


 Contracted 2-electron integrals neglected if value below      1.0D-11
 AO integral compression algorithm  1   Integral accuracy      1.0D-11

     0.262 MB (compressed) written to integral file (100.0%)


 NUMBER OF SORTED TWO-ELECTRON INTEGRALS:      24933.     BUFFER LENGTH:  32768
 NUMBER OF SEGMENTS:   1  SEGMENT LENGTH:      24933      RECORD LENGTH: 524288

 Memory used in sort:       0.58 MW

 SORT1 READ       32016. AND WROTE       21069. INTEGRALS IN      1 RECORDS. CPU TIME:     0.00 SEC, REAL TIME:     0.00 SEC
 SORT2 READ       21069. AND WROTE       24933. INTEGRALS IN      1 RECORDS. CPU TIME:     0.02 SEC, REAL TIME:     0.02 SEC

 FILE SIZES:   FILE 1:    30.2 MBYTE,  FILE 4:     4.2 MBYTE,   TOTAL:     34.5 MBYTE

 OPERATOR DM      FOR CENTER  0  COORDINATES:    0.000000    0.000000    0.000000


 **********************************************************************************************************************************
 DATASETS  * FILE   NREC   LENGTH (MB)   RECORD NAMES
              1      19       30.08       500      700      610      900      950      970     1000      129      960     1100   
                                          VAR     GEOM    BASINP   SYMINP    ZMAT    AOBASIS   BASIS     P2S    ABASIS      S 
                                         1400     1410     1200     1210     1080     1600     1650     1300     1700   
                                           T        V       H0       H01     AOSYM     SMH    MOLCAS    ERIS     OPER   

              3       5       14.77       500      610      700     1000     2100   
                                          VAR    BASINP    GEOM     BASIS     RHF  

 PROGRAMS   *        TOTAL       INT   RESTART
 CPU TIMES  *         0.21      0.13      0.01
 REAL TIME  *         0.36 SEC
 DISK USED  *        49.46 MB
 **********************************************************************************************************************************


 PROGRAM * CISD (Closed-shell CI(SD))     Authors: C. Hampel, H.-J. Werner, 1991, M. Deegan, P.J. Knowles, 1992


 Input parameters for THRESH:

 ENERGY   =    1.00D-10
 COEFF    =    1.00D-12
 PRINTCI  =    0.000000
 THRPRINT =    0.000000

 Convergence thresholds:  THRVAR = 1.00D-24  THRDEN = 1.00D-10

 Number of closed-shell orbitals:   3 (   3   0   0   0 )
 Number of external orbitals:      25 (  11   6   6   2 )

 Molecular orbitals read from record     2100.3  Type=RHF/CANONICAL (state 1.1)

 Number of N-1 electron functions:               3
 Number of N-2 electron functions:               6
 Number of singly external CSFs:                33
 Number of doubly external CSFs:               924
 Total number of CSFs:                         958

 Length of J-op  integral file:               0.00 MB
 Length of K-op  integral file:               0.05 MB

 Integral transformation finished. Total CPU:   0.00 sec, npass=  1  Memory used:   0.07 MW

 Reference energy:                    -14.86923112

 MP2 singlet pair energy:              -0.01997317
 MP2 triplet pair energy:              -0.00016887
 MP2 correlation energy:               -0.02014205
 MP2 total energy:                    -14.88937317

 SCS-MP2 correlation energy:           -0.02407288   (PS=  1.200000  PT=  0.333333)
 SCS-MP2 total energy:                -14.89330400

 ITER.      SQ.NORM     CORR.ENERGY   TOTAL ENERGY   ENERGY CHANGE        DEN1      VAR(S)    VAR(P)  DIIS     TIME  TIME/IT
   1      1.05140246    -0.02821054   -14.89744166    -0.00806849    -0.00441309  0.64D-04  0.28D-02  1  1     0.02     0.01
   2      1.08458944    -0.02963257   -14.89886370    -0.00142204    -0.00534702  0.38D-04  0.27D-03  2  2     0.03     0.01
   3      1.10063558    -0.03167805   -14.90090917    -0.00204547    -0.00184867  0.34D-05  0.55D-04  3  3     0.03     0.00
   4      1.10395723    -0.03195580   -14.90118692    -0.00027775    -0.00016872  0.11D-05  0.12D-04  4  4     0.04     0.00
   5      1.10504073    -0.03199514   -14.90122626    -0.00003934    -0.00002656  0.26D-06  0.13D-05  5  5     0.04     0.00
   6      1.10563696    -0.03200515   -14.90123627    -0.00001001    -0.00005741  0.15D-06  0.28D-06  6  6     0.04     0.00
   7      1.10570762    -0.03200643   -14.90123755    -0.00000128    -0.00000297  0.75D-07  0.54D-07  6  1     0.04     0.00
   8      1.10573138    -0.03200672   -14.90123784    -0.00000029    -0.00000043  0.22D-07  0.14D-07  6  2     0.05     0.00
   9      1.10571805    -0.03200682   -14.90123794    -0.00000010     0.00000214  0.45D-08  0.21D-08  6  3     0.05     0.00
  10      1.10572808    -0.03200685   -14.90123797    -0.00000003    -0.00000146  0.61D-09  0.30D-09  6  4     0.05     0.00
  11      1.10573289    -0.03200686   -14.90123798    -0.00000001    -0.00000067  0.10D-09  0.73D-10  6  5     0.05     0.00
  12      1.10573482    -0.03200686   -14.90123798    -0.00000000    -0.00000026  0.11D-10  0.22D-10  6  6     0.06     0.00
  13      1.10573391    -0.03200686   -14.90123798    -0.00000000     0.00000008  0.53D-12  0.64D-11  6  1     0.06     0.00
  14      1.10573237    -0.03200686   -14.90123798    -0.00000000     0.00000014  0.12D-12  0.13D-11  6  2     0.07     0.00
  15      1.10573163    -0.03200686   -14.90123798    -0.00000000     0.00000006  0.17D-12  0.31D-12  6  3     0.07     0.00
  16      1.10573135    -0.03200686   -14.90123798    -0.00000000     0.00000002  0.81D-13  0.92D-13  6  4     0.07     0.00
  17      1.10573127    -0.03200686   -14.90123798    -0.00000000     0.00000000  0.59D-14  0.18D-13  6  6     0.07     0.00
  18      1.10573128    -0.03200686   -14.90123798    -0.00000000    -0.00000000  0.31D-15  0.24D-14  6  5     0.08     0.00
  19      1.10573130    -0.03200686   -14.90123798    -0.00000000    -0.00000000  0.15D-16  0.35D-15  6  1     0.08     0.00
  20      1.10573131    -0.03200686   -14.90123798    -0.00000000    -0.00000000  0.14D-16  0.39D-16  6  2     0.08     0.00
  21      1.10573131    -0.03200686   -14.90123798     0.00000000    -0.00000000  0.29D-17  0.76D-17  6  3     0.08     0.00
  22      1.10573131    -0.03200686   -14.90123798     0.00000000    -0.00000000  0.45D-18  0.24D-17  6  4     0.09     0.00
  23      1.10573131    -0.03200686   -14.90123798     0.00000000    -0.00000000  0.13D-18  0.59D-18  6  5     0.09     0.00
  24      1.10573131    -0.03200686   -14.90123798     0.00000000    -0.00000000  0.27D-20  0.53D-19  6  6     0.09     0.00
  25      1.10573131    -0.03200686   -14.90123798     0.00000000    -0.00000000  0.99D-21  0.13D-19  6  1     0.09     0.00
  26      1.10573131    -0.03200686   -14.90123798     0.00000000     0.00000000  0.49D-21  0.27D-20  6  2     0.09     0.00
  27      1.10573131    -0.03200686   -14.90123798     0.00000000     0.00000000  0.12D-21  0.68D-21  6  3     0.10     0.00
  28      1.10573131    -0.03200686   -14.90123798     0.00000000     0.00000000  0.24D-23  0.78D-22  6  1     0.10     0.00
  29      1.10573131    -0.03200686   -14.90123798     0.00000000     0.00000000  0.20D-23  0.16D-22  6  5     0.10     0.00
  30      1.10573131    -0.03200686   -14.90123798     0.00000000     0.00000000  0.84D-24  0.34D-23  6  4     0.10     0.00
  31      1.10573131    -0.03200686   -14.90123798     0.00000000     0.00000000  0.57D-24  0.72D-24  6  6     0.11     0.00
  32      1.10573131    -0.03200686   -14.90123798     0.00000000     0.00000000  0.29D-24  0.18D-24  6  2     0.11     0.00


 ! DIPOLE MOMENTS:                      0.00000000     0.00000000     0.00000000



 Norm of t1 vector:      0.02667499      S-energy:    -0.00002060      T1 diagnostic:  0.00770041

 Singles amplitudes (print threshold =  0.000E+00):

         I         SYM. A    A   T(IA)

         1         1         1      0.00000000
         1         1         2      0.00001410
         1         1         3     -0.00000000
         1         1         4     -0.00000966
         1         1         5     -0.00027301
         1         1         6      0.00000000
         1         1         7     -0.00000000
         1         1         8     -0.00000000
         1         1         9     -0.00000000
         1         1        10      0.00002425
         1         1        11      0.00000000
         2         1         1     -0.00034350
         2         1         2     -0.00000000
         2         1         3      0.00037776
         2         1         4      0.00000000
         2         1         5     -0.00000000
         2         1         6     -0.00013803
         2         1         7     -0.00031406
         2         1         8     -0.00000000
         2         1         9      0.00000000
         2         1        10     -0.00000000
         2         1        11     -0.00006297
         3         1         1     -0.00000000
         3         1         2      0.01391379
         3         1         3      0.00000000
         3         1         4     -0.01010932
         3         1         5     -0.00722627
         3         1         6     -0.00000000
         3         1         7      0.00000000
         3         1         8     -0.00000000
         3         1         9      0.00000000
         3         1        10     -0.00270350
         3         1        11     -0.00000000

 Doubles amplitudes (print threshold =  0.000E+00):

         I         J         SYM. A    SYM. B    A         B      T(IJ, AB)

         1         1         1         1         1         1     -0.00029473
         1         1         1         1         1         2      0.00000000
         1         1         1         1         1         3      0.00048449
         1         1         1         1         1         4     -0.00000000
         1         1         1         1         1         5     -0.00000000
         1         1         1         1         1         6     -0.00021411
         1         1         1         1         1         7     -0.00035267
         1         1         1         1         1         8      0.00000000
         1         1         1         1         1         9     -0.00000000
         1         1         1         1         1        10      0.00000000
         1         1         1         1         1        11     -0.00047387
         1         1         1         1         2         1      0.00000000
         1         1         1         1         2         2     -0.00002545
         1         1         1         1         2         3     -0.00000000
         1         1         1         1         2         4      0.00013623
         1         1         1         1         2         5     -0.00008142
         1         1         1         1         2         6     -0.00000000
         1         1         1         1         2         7      0.00000000
         1         1         1         1         2         8     -0.00000000
         1         1         1         1         2         9      0.00000000
         1         1         1         1         2        10     -0.00011038
         1         1         1         1         2        11     -0.00000000
         1         1         1         1         3         1      0.00048449
         1         1         1         1         3         2     -0.00000000
         1         1         1         1         3         3     -0.00073227
         1         1         1         1         3         4      0.00000000
         1         1         1         1         3         5      0.00000000
         1         1         1         1         3         6      0.00021873
         1         1         1         1         3         7      0.00053630
         1         1         1         1         3         8      0.00000000
         1         1         1         1         3         9      0.00000000
         1         1         1         1         3        10     -0.00000000
         1         1         1         1         3        11      0.00053633
         1         1         1         1         4         1     -0.00000000
         1         1         1         1         4         2      0.00013623
         1         1         1         1         4         3      0.00000000
         1         1         1         1         4         4     -0.00038850
         1         1         1         1         4         5      0.00024695
         1         1         1         1         4         6      0.00000000
         1         1         1         1         4         7     -0.00000000
         1         1         1         1         4         8      0.00000000
         1         1         1         1         4         9     -0.00000000
         1         1         1         1         4        10      0.00022863
         1         1         1         1         4        11      0.00000000
         1         1         1         1         5         1     -0.00000000
         1         1         1         1         5         2     -0.00008142
         1         1         1         1         5         3      0.00000000
         1         1         1         1         5         4      0.00024695
         1         1         1         1         5         5     -0.00069843
         1         1         1         1         5         6     -0.00000000
         1         1         1         1         5         7     -0.00000000
         1         1         1         1         5         8      0.00000000
         1         1         1         1         5         9      0.00000000
         1         1         1         1         5        10      0.00008960
         1         1         1         1         5        11     -0.00000000
         1         1         1         1         6         1     -0.00021411
         1         1         1         1         6         2     -0.00000000
         1         1         1         1         6         3      0.00021873
         1         1         1         1         6         4      0.00000000
         1         1         1         1         6         5     -0.00000000
         1         1         1         1         6         6     -0.00064328
         1         1         1         1         6         7     -0.00003552
         1         1         1         1         6         8      0.00000000
         1         1         1         1         6         9     -0.00000000
         1         1         1         1         6        10     -0.00000000
         1         1         1         1         6        11     -0.00116975
         1         1         1         1         7         1     -0.00035267
         1         1         1         1         7         2      0.00000000
         1         1         1         1         7         3      0.00053630
         1         1         1         1         7         4     -0.00000000
         1         1         1         1         7         5     -0.00000000
         1         1         1         1         7         6     -0.00003552
         1         1         1         1         7         7     -0.00045748
         1         1         1         1         7         8      0.00000000
         1         1         1         1         7         9     -0.00000000
         1         1         1         1         7        10      0.00000000
         1         1         1         1         7        11     -0.00003147
         1         1         1         1         8         1      0.00000000
         1         1         1         1         8         2     -0.00000000
         1         1         1         1         8         3      0.00000000
         1         1         1         1         8         4      0.00000000
         1         1         1         1         8         5      0.00000000
         1         1         1         1         8         6      0.00000000
         1         1         1         1         8         7      0.00000000
         1         1         1         1         8         8     -0.00000154
         1         1         1         1         8         9      0.00000000
         1         1         1         1         8        10     -0.00000000
         1         1         1         1         8        11     -0.00000000
         1         1         1         1         9         1     -0.00000000
         1         1         1         1         9         2      0.00000000
         1         1         1         1         9         3      0.00000000
         1         1         1         1         9         4     -0.00000000
         1         1         1         1         9         5      0.00000000
         1         1         1         1         9         6     -0.00000000
         1         1         1         1         9         7     -0.00000000
         1         1         1         1         9         8      0.00000000
         1         1         1         1         9         9     -0.00000576
         1         1         1         1         9        10      0.00000000
         1         1         1         1         9        11     -0.00000000
         1         1         1         1        10         1      0.00000000
         1         1         1         1        10         2     -0.00011038
         1         1         1         1        10         3     -0.00000000
         1         1         1         1        10         4      0.00022863
         1         1         1         1        10         5      0.00008960
         1         1         1         1        10         6     -0.00000000
         1         1         1         1        10         7      0.00000000
         1         1         1         1        10         8     -0.00000000
         1         1         1         1        10         9      0.00000000
         1         1         1         1        10        10     -0.00031082
         1         1         1         1        10        11     -0.00000000
         1         1         1         1        11         1     -0.00047387
         1         1         1         1        11         2     -0.00000000
         1         1         1         1        11         3      0.00053633
         1         1         1         1        11         4      0.00000000
         1         1         1         1        11         5     -0.00000000
         1         1         1         1        11         6     -0.00116975
         1         1         1         1        11         7     -0.00003147
         1         1         1         1        11         8     -0.00000000
         1         1         1         1        11         9     -0.00000000
         1         1         1         1        11        10     -0.00000000
         1         1         1         1        11        11     -0.00283952
         1         1         2         2         1         1      0.00011475
         1         1         2         2         1         2     -0.00000000
         1         1         2         2         1         3     -0.00009096
         1         1         2         2         1         4     -0.00000000
         1         1         2         2         1         5      0.00007985
         1         1         2         2         1         6     -0.00000000
         1         1         2         2         2         1     -0.00000000
         1         1         2         2         2         2     -0.00000757
         1         1         2         2         2         3     -0.00000000
         1         1         2         2         2         4     -0.00009042
         1         1         2         2         2         5      0.00000000
         1         1         2         2         2         6     -0.00005553
         1         1         2         2         3         1     -0.00009096
         1         1         2         2         3         2     -0.00000000
         1         1         2         2         3         3     -0.00061204
         1         1         2         2         3         4     -0.00000000
         1         1         2         2         3         5      0.00015497
         1         1         2         2         3         6     -0.00000000
         1         1         2         2         4         1     -0.00000000
         1         1         2         2         4         2     -0.00009042
         1         1         2         2         4         3     -0.00000000
         1         1         2         2         4         4     -0.00077954
         1         1         2         2         4         5      0.00000000
         1         1         2         2         4         6     -0.00048960
         1         1         2         2         5         1      0.00007985
         1         1         2         2         5         2      0.00000000
         1         1         2         2         5         3      0.00015497
         1         1         2         2         5         4      0.00000000
         1         1         2         2         5         5     -0.00002426
         1         1         2         2         5         6      0.00000000
         1         1         2         2         6         1     -0.00000000
         1         1         2         2         6         2     -0.00005553
         1         1         2         2         6         3     -0.00000000
         1         1         2         2         6         4     -0.00048960
         1         1         2         2         6         5      0.00000000
         1         1         2         2         6         6     -0.00032556
         1         1         3         3         1         1      0.00011475
         1         1         3         3         1         2     -0.00000000
         1         1         3         3         1         3     -0.00009096
         1         1         3         3         1         4     -0.00000000
         1         1         3         3         1         5      0.00007985
         1         1         3         3         1         6     -0.00000000
         1         1         3         3         2         1     -0.00000000
         1         1         3         3         2         2     -0.00000757
         1         1         3         3         2         3     -0.00000000
         1         1         3         3         2         4     -0.00009042
         1         1         3         3         2         5      0.00000000
         1         1         3         3         2         6     -0.00005553
         1         1         3         3         3         1     -0.00009096
         1         1         3         3         3         2     -0.00000000
         1         1         3         3         3         3     -0.00061204
         1         1         3         3         3         4     -0.00000000
         1         1         3         3         3         5      0.00015497
         1         1         3         3         3         6     -0.00000000
         1         1         3         3         4         1     -0.00000000
         1         1         3         3         4         2     -0.00009042
         1         1         3         3         4         3     -0.00000000
         1         1         3         3         4         4     -0.00077954
         1         1         3         3         4         5      0.00000000
         1         1         3         3         4         6     -0.00048960
         1         1         3         3         5         1      0.00007985
         1         1         3         3         5         2      0.00000000
         1         1         3         3         5         3      0.00015497
         1         1         3         3         5         4      0.00000000
         1         1         3         3         5         5     -0.00002426
         1         1         3         3         5         6      0.00000000
         1         1         3         3         6         1     -0.00000000
         1         1         3         3         6         2     -0.00005553
         1         1         3         3         6         3     -0.00000000
         1         1         3         3         6         4     -0.00048960
         1         1         3         3         6         5      0.00000000
         1         1         3         3         6         6     -0.00032556
         1         1         4         4         1         1     -0.00000154
         1         1         4         4         1         2      0.00000000
         1         1         4         4         2         1      0.00000000
         1         1         4         4         2         2     -0.00000576
         2         1         1         1         1         1      0.00000000
         2         1         1         1         1         2      0.00003510
         2         1         1         1         1         3     -0.00000000
         2         1         1         1         1         4     -0.00002334
         2         1         1         1         1         5     -0.00046125
         2         1         1         1         1         6      0.00000000
         2         1         1         1         1         7      0.00000000
         2         1         1         1         1         8      0.00000000
         2         1         1         1         1         9     -0.00000000
         2         1         1         1         1        10      0.00023755
         2         1         1         1         1        11      0.00000000
         2         1         1         1         2         1      0.00004252
         2         1         1         1         2         2     -0.00000000
         2         1         1         1         2         3     -0.00008515
         2         1         1         1         2         4      0.00000000
         2         1         1         1         2         5     -0.00000000
         2         1         1         1         2         6     -0.00017975
         2         1         1         1         2         7      0.00012325
         2         1         1         1         2         8     -0.00000000
         2         1         1         1         2         9     -0.00000000
         2         1         1         1         2        10     -0.00000000
         2         1         1         1         2        11     -0.00036003
         2         1         1         1         3         1     -0.00000000
         2         1         1         1         3         2     -0.00007825
         2         1         1         1         3         3      0.00000000
         2         1         1         1         3         4      0.00009868
         2         1         1         1         3         5      0.00058059
         2         1         1         1         3         6     -0.00000000
         2         1         1         1         3         7      0.00000000
         2         1         1         1         3         8      0.00000000
         2         1         1         1         3         9     -0.00000000
         2         1         1         1         3        10     -0.00037401
         2         1         1         1         3        11     -0.00000000
         2         1         1         1         4         1     -0.00003911
         2         1         1         1         4         2      0.00000000
         2         1         1         1         4         3      0.00011345
         2         1         1         1         4         4     -0.00000000
         2         1         1         1         4         5      0.00000000
         2         1         1         1         4         6      0.00042317
         2         1         1         1         4         7     -0.00023079
         2         1         1         1         4         8      0.00000000
         2         1         1         1         4         9      0.00000000
         2         1         1         1         4        10      0.00000000
         2         1         1         1         4        11      0.00093388
         2         1         1         1         5         1     -0.00044832
         2         1         1         1         5         2     -0.00000000
         2         1         1         1         5         3      0.00056832
         2         1         1         1         5         4      0.00000000
         2         1         1         1         5         5     -0.00000000
         2         1         1         1         5         6     -0.00055618
         2         1         1         1         5         7     -0.00033295
         2         1         1         1         5         8     -0.00000000
         2         1         1         1         5         9      0.00000000
         2         1         1         1         5        10     -0.00000000
         2         1         1         1         5        11     -0.00103792
         2         1         1         1         6         1      0.00000000
         2         1         1         1         6         2     -0.00020278
         2         1         1         1         6         3     -0.00000000
         2         1         1         1         6         4      0.00047213
         2         1         1         1         6         5     -0.00059500
         2         1         1         1         6         6      0.00000000
         2         1         1         1         6         7      0.00000000
         2         1         1         1         6         8      0.00000000
         2         1         1         1         6         9     -0.00000000
         2         1         1         1         6        10     -0.00015919
         2         1         1         1         6        11      0.00000000
         2         1         1         1         7         1      0.00000000
         2         1         1         1         7         2      0.00012365
         2         1         1         1         7         3      0.00000000
         2         1         1         1         7         4     -0.00023135
         2         1         1         1         7         5     -0.00033279
         2         1         1         1         7         6      0.00000000
         2         1         1         1         7         7      0.00000000
         2         1         1         1         7         8      0.00000000
         2         1         1         1         7         9     -0.00000000
         2         1         1         1         7        10      0.00030119
         2         1         1         1         7        11     -0.00000000
         2         1         1         1         8         1      0.00000000
         2         1         1         1         8         2     -0.00000000
         2         1         1         1         8         3      0.00000000
         2         1         1         1         8         4      0.00000000
         2         1         1         1         8         5     -0.00000000
         2         1         1         1         8         6      0.00000000
         2         1         1         1         8         7      0.00000000
         2         1         1         1         8         8     -0.00000000
         2         1         1         1         8         9     -0.00001334
         2         1         1         1         8        10      0.00000000
         2         1         1         1         8        11     -0.00000000
         2         1         1         1         9         1     -0.00000000
         2         1         1         1         9         2     -0.00000000
         2         1         1         1         9         3     -0.00000000
         2         1         1         1         9         4      0.00000000
         2         1         1         1         9         5      0.00000000
         2         1         1         1         9         6     -0.00000000
         2         1         1         1         9         7     -0.00000000
         2         1         1         1         9         8     -0.00001382
         2         1         1         1         9         9     -0.00000000
         2         1         1         1         9        10     -0.00000000
         2         1         1         1         9        11      0.00000000
         2         1         1         1        10         1      0.00024856
         2         1         1         1        10         2     -0.00000000
         2         1         1         1        10         3     -0.00038414
         2         1         1         1        10         4      0.00000000
         2         1         1         1        10         5     -0.00000000
         2         1         1         1        10         6     -0.00012449
         2         1         1         1        10         7      0.00030080
         2         1         1         1        10         8      0.00000000
         2         1         1         1        10         9     -0.00000000
         2         1         1         1        10        10     -0.00000000
         2         1         1         1        10        11     -0.00013177
         2         1         1         1        11         1      0.00000000
         2         1         1         1        11         2     -0.00039993
         2         1         1         1        11         3     -0.00000000
         2         1         1         1        11         4      0.00101953
         2         1         1         1        11         5     -0.00110518
         2         1         1         1        11         6      0.00000000
         2         1         1         1        11         7     -0.00000000
         2         1         1         1        11         8     -0.00000000
         2         1         1         1        11         9      0.00000000
         2         1         1         1        11        10     -0.00019340
         2         1         1         1        11        11      0.00000000
         2         1         2         2         1         1     -0.00000000
         2         1         2         2         1         2     -0.00002596
         2         1         2         2         1         3     -0.00000000
         2         1         2         2         1         4     -0.00021886
         2         1         2         2         1         5     -0.00000000
         2         1         2         2         1         6     -0.00013812
         2         1         2         2         2         1     -0.00002807
         2         1         2         2         2         2      0.00000000
         2         1         2         2         2         3     -0.00009318
         2         1         2         2         2         4      0.00000000
         2         1         2         2         2         5      0.00001838
         2         1         2         2         2         6      0.00000000
         2         1         2         2         3         1     -0.00000000
         2         1         2         2         3         2     -0.00008735
         2         1         2         2         3         3     -0.00000000
         2         1         2         2         3         4     -0.00072197
         2         1         2         2         3         5     -0.00000000
         2         1         2         2         3         6     -0.00045843
         2         1         2         2         4         1     -0.00023291
         2         1         2         2         4         2      0.00000000
         2         1         2         2         4         3     -0.00076075
         2         1         2         2         4         4      0.00000000
         2         1         2         2         4         5      0.00014407
         2         1         2         2         4         6      0.00000000
         2         1         2         2         5         1     -0.00000000
         2         1         2         2         5         2      0.00001899
         2         1         2         2         5         3     -0.00000000
         2         1         2         2         5         4      0.00014930
         2         1         2         2         5         5      0.00000000
         2         1         2         2         5         6      0.00007688
         2         1         2         2         6         1     -0.00014803
         2         1         2         2         6         2      0.00000000
         2         1         2         2         6         3     -0.00048565
         2         1         2         2         6         4      0.00000000
         2         1         2         2         6         5      0.00007253
         2         1         2         2         6         6      0.00000000
         2         1         3         3         1         1     -0.00000000
         2         1         3         3         1         2     -0.00002596
         2         1         3         3         1         3     -0.00000000
         2         1         3         3         1         4     -0.00021886
         2         1         3         3         1         5     -0.00000000
         2         1         3         3         1         6     -0.00013812
         2         1         3         3         2         1     -0.00002807
         2         1         3         3         2         2      0.00000000
         2         1         3         3         2         3     -0.00009318
         2         1         3         3         2         4      0.00000000
         2         1         3         3         2         5      0.00001838
         2         1         3         3         2         6      0.00000000
         2         1         3         3         3         1     -0.00000000
         2         1         3         3         3         2     -0.00008735
         2         1         3         3         3         3     -0.00000000
         2         1         3         3         3         4     -0.00072197
         2         1         3         3         3         5     -0.00000000
         2         1         3         3         3         6     -0.00045843
         2         1         3         3         4         1     -0.00023291
         2         1         3         3         4         2      0.00000000
         2         1         3         3         4         3     -0.00076075
         2         1         3         3         4         4      0.00000000
         2         1         3         3         4         5      0.00014407
         2         1         3         3         4         6      0.00000000
         2         1         3         3         5         1     -0.00000000
         2         1         3         3         5         2      0.00001899
         2         1         3         3         5         3     -0.00000000
         2         1         3         3         5         4      0.00014930
         2         1         3         3         5         5      0.00000000
         2         1         3         3         5         6      0.00007688
         2         1         3         3         6         1     -0.00014803
         2         1         3         3         6         2      0.00000000
         2         1         3         3         6         3     -0.00048565
         2         1         3         3         6         4      0.00000000
         2         1         3         3         6         5      0.00007253
         2         1         3         3         6         6      0.00000000
         2         1         4         4         1         1     -0.00000000
         2         1         4         4         1         2     -0.00001334
         2         1         4         4         2         1     -0.00001382
         2         1         4         4         2         2     -0.00000000
         2         2         1         1         1         1     -0.00030013
         2         2         1         1         1         2     -0.00000000
         2         2         1         1         1         3      0.00048941
         2         2         1         1         1         4      0.00000000
         2         2         1         1         1         5      0.00000000
         2         2         1         1         1         6     -0.00022946
         2         2         1         1         1         7     -0.00035207
         2         2         1         1         1         8      0.00000000
         2         2         1         1         1         9     -0.00000000
         2         2         1         1         1        10     -0.00000000
         2         2         1         1         1        11     -0.00050061
         2         2         1         1         2         1     -0.00000000
         2         2         1         1         2         2     -0.00001402
         2         2         1         1         2         3      0.00000000
         2         2         1         1         2         4      0.00011199
         2         2         1         1         2         5     -0.00006054
         2         2         1         1         2         6      0.00000000
         2         2         1         1         2         7     -0.00000000
         2         2         1         1         2         8      0.00000000
         2         2         1         1         2         9     -0.00000000
         2         2         1         1         2        10     -0.00009368
         2         2         1         1         2        11      0.00000000
         2         2         1         1         3         1      0.00048941
         2         2         1         1         3         2      0.00000000
         2         2         1         1         3         3     -0.00073673
         2         2         1         1         3         4     -0.00000000
         2         2         1         1         3         5     -0.00000000
         2         2         1         1         3         6      0.00023284
         2         2         1         1         3         7      0.00053559
         2         2         1         1         3         8      0.00000000
         2         2         1         1         3         9     -0.00000000
         2         2         1         1         3        10      0.00000000
         2         2         1         1         3        11      0.00056054
         2         2         1         1         4         1      0.00000000
         2         2         1         1         4         2      0.00011199
         2         2         1         1         4         3     -0.00000000
         2         2         1         1         4         4     -0.00033752
         2         2         1         1         4         5      0.00020322
         2         2         1         1         4         6     -0.00000000
         2         2         1         1         4         7      0.00000000
         2         2         1         1         4         8     -0.00000000
         2         2         1         1         4         9      0.00000000
         2         2         1         1         4        10      0.00019274
         2         2         1         1         4        11     -0.00000000
         2         2         1         1         5         1      0.00000000
         2         2         1         1         5         2     -0.00006054
         2         2         1         1         5         3     -0.00000000
         2         2         1         1         5         4      0.00020322
         2         2         1         1         5         5     -0.00066250
         2         2         1         1         5         6      0.00000000
         2         2         1         1         5         7      0.00000000
         2         2         1         1         5         8     -0.00000000
         2         2         1         1         5         9      0.00000000
         2         2         1         1         5        10      0.00012034
         2         2         1         1         5        11      0.00000000
         2         2         1         1         6         1     -0.00022946
         2         2         1         1         6         2      0.00000000
         2         2         1         1         6         3      0.00023284
         2         2         1         1         6         4     -0.00000000
         2         2         1         1         6         5      0.00000000
         2         2         1         1         6         6     -0.00069209
         2         2         1         1         6         7     -0.00003322
         2         2         1         1         6         8      0.00000000
         2         2         1         1         6         9     -0.00000000
         2         2         1         1         6        10      0.00000000
         2         2         1         1         6        11     -0.00125736
         2         2         1         1         7         1     -0.00035207
         2         2         1         1         7         2     -0.00000000
         2         2         1         1         7         3      0.00053559
         2         2         1         1         7         4      0.00000000
         2         2         1         1         7         5      0.00000000
         2         2         1         1         7         6     -0.00003322
         2         2         1         1         7         7     -0.00045719
         2         2         1         1         7         8      0.00000000
         2         2         1         1         7         9     -0.00000000
         2         2         1         1         7        10     -0.00000000
         2         2         1         1         7        11     -0.00002652
         2         2         1         1         8         1      0.00000000
         2         2         1         1         8         2      0.00000000
         2         2         1         1         8         3      0.00000000
         2         2         1         1         8         4     -0.00000000
         2         2         1         1         8         5     -0.00000000
         2         2         1         1         8         6      0.00000000
         2         2         1         1         8         7      0.00000000
         2         2         1         1         8         8     -0.00000074
         2         2         1         1         8         9      0.00000000
         2         2         1         1         8        10     -0.00000000
         2         2         1         1         8        11     -0.00000000
         2         2         1         1         9         1     -0.00000000
         2         2         1         1         9         2     -0.00000000
         2         2         1         1         9         3     -0.00000000
         2         2         1         1         9         4      0.00000000
         2         2         1         1         9         5      0.00000000
         2         2         1         1         9         6     -0.00000000
         2         2         1         1         9         7     -0.00000000
         2         2         1         1         9         8      0.00000000
         2         2         1         1         9         9     -0.00000611
         2         2         1         1         9        10      0.00000000
         2         2         1         1         9        11      0.00000000
         2         2         1         1        10         1     -0.00000000
         2         2         1         1        10         2     -0.00009368
         2         2         1         1        10         3      0.00000000
         2         2         1         1        10         4      0.00019274
         2         2         1         1        10         5      0.00012034
         2         2         1         1        10         6      0.00000000
         2         2         1         1        10         7     -0.00000000
         2         2         1         1        10         8     -0.00000000
         2         2         1         1        10         9      0.00000000
         2         2         1         1        10        10     -0.00028459
         2         2         1         1        10        11      0.00000000
         2         2         1         1        11         1     -0.00050061
         2         2         1         1        11         2      0.00000000
         2         2         1         1        11         3      0.00056054
         2         2         1         1        11         4     -0.00000000
         2         2         1         1        11         5      0.00000000
         2         2         1         1        11         6     -0.00125736
         2         2         1         1        11         7     -0.00002652
         2         2         1         1        11         8     -0.00000000
         2         2         1         1        11         9      0.00000000
         2         2         1         1        11        10      0.00000000
         2         2         1         1        11        11     -0.00299861
         2         2         2         2         1         1      0.00012010
         2         2         2         2         1         2      0.00000000
         2         2         2         2         1         3     -0.00007532
         2         2         2         2         1         4      0.00000000
         2         2         2         2         1         5      0.00008247
         2         2         2         2         1         6      0.00000000
         2         2         2         2         2         1      0.00000000
         2         2         2         2         2         2     -0.00000840
         2         2         2         2         2         3      0.00000000
         2         2         2         2         2         4     -0.00009604
         2         2         2         2         2         5     -0.00000000
         2         2         2         2         2         6     -0.00005906
         2         2         2         2         3         1     -0.00007532
         2         2         2         2         3         2      0.00000000
         2         2         2         2         3         3     -0.00056871
         2         2         2         2         3         4      0.00000000
         2         2         2         2         3         5      0.00016223
         2         2         2         2         3         6      0.00000000
         2         2         2         2         4         1      0.00000000
         2         2         2         2         4         2     -0.00009604
         2         2         2         2         4         3      0.00000000
         2         2         2         2         4         4     -0.00081666
         2         2         2         2         4         5     -0.00000000
         2         2         2         2         4         6     -0.00051392
         2         2         2         2         5         1      0.00008247
         2         2         2         2         5         2     -0.00000000
         2         2         2         2         5         3      0.00016223
         2         2         2         2         5         4     -0.00000000
         2         2         2         2         5         5     -0.00002352
         2         2         2         2         5         6     -0.00000000
         2         2         2         2         6         1      0.00000000
         2         2         2         2         6         2     -0.00005906
         2         2         2         2         6         3      0.00000000
         2         2         2         2         6         4     -0.00051392
         2         2         2         2         6         5     -0.00000000
         2         2         2         2         6         6     -0.00034232
         2         2         3         3         1         1      0.00012010
         2         2         3         3         1         2      0.00000000
         2         2         3         3         1         3     -0.00007532
         2         2         3         3         1         4      0.00000000
         2         2         3         3         1         5      0.00008247
         2         2         3         3         1         6      0.00000000
         2         2         3         3         2         1      0.00000000
         2         2         3         3         2         2     -0.00000840
         2         2         3         3         2         3      0.00000000
         2         2         3         3         2         4     -0.00009604
         2         2         3         3         2         5     -0.00000000
         2         2         3         3         2         6     -0.00005906
         2         2         3         3         3         1     -0.00007532
         2         2         3         3         3         2      0.00000000
         2         2         3         3         3         3     -0.00056871
         2         2         3         3         3         4      0.00000000
         2         2         3         3         3         5      0.00016223
         2         2         3         3         3         6      0.00000000
         2         2         3         3         4         1      0.00000000
         2         2         3         3         4         2     -0.00009604
         2         2         3         3         4         3      0.00000000
         2         2         3         3         4         4     -0.00081666
         2         2         3         3         4         5     -0.00000000
         2         2         3         3         4         6     -0.00051392
         2         2         3         3         5         1      0.00008247
         2         2         3         3         5         2     -0.00000000
         2         2         3         3         5         3      0.00016223
         2         2         3         3         5         4     -0.00000000
         2         2         3         3         5         5     -0.00002352
         2         2         3         3         5         6     -0.00000000
         2         2         3         3         6         1      0.00000000
         2         2         3         3         6         2     -0.00005906
         2         2         3         3         6         3      0.00000000
         2         2         3         3         6         4     -0.00051392
         2         2         3         3         6         5     -0.00000000
         2         2         3         3         6         6     -0.00034232
         2         2         4         4         1         1     -0.00000074
         2         2         4         4         1         2      0.00000000
         2         2         4         4         2         1      0.00000000
         2         2         4         4         2         2     -0.00000611
         3         1         1         1         1         1      0.00011498
         3         1         1         1         1         2     -0.00000000
         3         1         1         1         1         3     -0.00018704
         3         1         1         1         1         4      0.00000000
         3         1         1         1         1         5     -0.00000000
         3         1         1         1         1         6     -0.00047927
         3         1         1         1         1         7      0.00034200
         3         1         1         1         1         8      0.00000000
         3         1         1         1         1         9     -0.00000000
         3         1         1         1         1        10     -0.00000000
         3         1         1         1         1        11     -0.00083111
         3         1         1         1         2         1      0.00000000
         3         1         1         1         2         2     -0.00045691
         3         1         1         1         2         3     -0.00000000
         3         1         1         1         2         4      0.00091789
         3         1         1         1         2         5     -0.00089462
         3         1         1         1         2         6      0.00000000
         3         1         1         1         2         7      0.00000000
         3         1         1         1         2         8     -0.00000000
         3         1         1         1         2         9     -0.00000000
         3         1         1         1         2        10     -0.00043181
         3         1         1         1         2        11      0.00000000
         3         1         1         1         3         1     -0.00025680
         3         1         1         1         3         2      0.00000000
         3         1         1         1         3         3      0.00035162
         3         1         1         1         3         4      0.00000000
         3         1         1         1         3         5     -0.00000000
         3         1         1         1         3         6      0.00029436
         3         1         1         1         3         7     -0.00039911
         3         1         1         1         3         8      0.00000000
         3         1         1         1         3         9     -0.00000000
         3         1         1         1         3        10      0.00000000
         3         1         1         1         3        11      0.00059133
         3         1         1         1         4         1     -0.00000000
         3         1         1         1         4         2      0.00066297
         3         1         1         1         4         3      0.00000000
         3         1         1         1         4         4     -0.00133928
         3         1         1         1         4         5      0.00134933
         3         1         1         1         4         6     -0.00000000
         3         1         1         1         4         7      0.00000000
         3         1         1         1         4         8     -0.00000000
         3         1         1         1         4         9      0.00000000
         3         1         1         1         4        10      0.00072935
         3         1         1         1         4        11     -0.00000000
         3         1         1         1         5         1     -0.00000000
         3         1         1         1         5         2     -0.00036052
         3         1         1         1         5         3     -0.00000000
         3         1         1         1         5         4      0.00075925
         3         1         1         1         5         5     -0.00052728
         3         1         1         1         5         6     -0.00000000
         3         1         1         1         5         7     -0.00000000
         3         1         1         1         5         8     -0.00000000
         3         1         1         1         5         9     -0.00000000
         3         1         1         1         5        10     -0.00034611
         3         1         1         1         5        11      0.00000000
         3         1         1         1         6         1     -0.00018516
         3         1         1         1         6         2      0.00000000
         3         1         1         1         6         3      0.00017581
         3         1         1         1         6         4      0.00000000
         3         1         1         1         6         5     -0.00000000
         3         1         1         1         6         6     -0.00080703
         3         1         1         1         6         7      0.00015637
         3         1         1         1         6         8      0.00000000
         3         1         1         1         6         9     -0.00000000
         3         1         1         1         6        10      0.00000000
         3         1         1         1         6        11     -0.00125012
         3         1         1         1         7         1      0.00033070
         3         1         1         1         7         2      0.00000000
         3         1         1         1         7         3     -0.00038432
         3         1         1         1         7         4      0.00000000
         3         1         1         1         7         5     -0.00000000
         3         1         1         1         7         6      0.00035972
         3         1         1         1         7         7      0.00014885
         3         1         1         1         7         8      0.00000000
         3         1         1         1         7         9     -0.00000000
         3         1         1         1         7        10      0.00000000
         3         1         1         1         7        11      0.00030294
         3         1         1         1         8         1      0.00000000
         3         1         1         1         8         2     -0.00000000
         3         1         1         1         8         3      0.00000000
         3         1         1         1         8         4     -0.00000000
         3         1         1         1         8         5     -0.00000000
         3         1         1         1         8         6      0.00000000
         3         1         1         1         8         7      0.00000000
         3         1         1         1         8         8     -0.00019064
         3         1         1         1         8         9      0.00000000
         3         1         1         1         8        10     -0.00000000
         3         1         1         1         8        11     -0.00000000
         3         1         1         1         9         1     -0.00000000
         3         1         1         1         9         2      0.00000000
         3         1         1         1         9         3     -0.00000000
         3         1         1         1         9         4      0.00000000
         3         1         1         1         9         5     -0.00000000
         3         1         1         1         9         6     -0.00000000
         3         1         1         1         9         7     -0.00000000
         3         1         1         1         9         8      0.00000000
         3         1         1         1         9         9     -0.00014804
         3         1         1         1         9        10     -0.00000000
         3         1         1         1         9        11      0.00000000
         3         1         1         1        10         1      0.00000000
         3         1         1         1        10         2     -0.00041605
         3         1         1         1        10         3     -0.00000000
         3         1         1         1        10         4      0.00086229
         3         1         1         1        10         5     -0.00089177
         3         1         1         1        10         6      0.00000000
         3         1         1         1        10         7      0.00000000
         3         1         1         1        10         8     -0.00000000
         3         1         1         1        10         9     -0.00000000
         3         1         1         1        10        10     -0.00060415
         3         1         1         1        10        11      0.00000000
         3         1         1         1        11         1     -0.00019808
         3         1         1         1        11         2     -0.00000000
         3         1         1         1        11         3      0.00016310
         3         1         1         1        11         4      0.00000000
         3         1         1         1        11         5      0.00000000
         3         1         1         1        11         6     -0.00089796
         3         1         1         1        11         7      0.00005601
         3         1         1         1        11         8     -0.00000000
         3         1         1         1        11         9      0.00000000
         3         1         1         1        11        10      0.00000000
         3         1         1         1        11        11     -0.00129058
         3         1         2         2         1         1     -0.00047274
         3         1         2         2         1         2      0.00000000
         3         1         2         2         1         3     -0.00117463
         3         1         2         2         1         4      0.00000000
         3         1         2         2         1         5      0.00002162
         3         1         2         2         1         6      0.00000000
         3         1         2         2         2         1      0.00000000
         3         1         2         2         2         2     -0.00008561
         3         1         2         2         2         3     -0.00000000
         3         1         2         2         2         4     -0.00055143
         3         1         2         2         2         5      0.00000000
         3         1         2         2         2         6     -0.00027041
         3         1         2         2         3         1     -0.00068376
         3         1         2         2         3         2      0.00000000
         3         1         2         2         3         3     -0.00185275
         3         1         2         2         3         4      0.00000000
         3         1         2         2         3         5      0.00007573
         3         1         2         2         3         6      0.00000000
         3         1         2         2         4         1      0.00000000
         3         1         2         2         4         2     -0.00025387
         3         1         2         2         4         3      0.00000000
         3         1         2         2         4         4     -0.00165810
         3         1         2         2         4         5      0.00000000
         3         1         2         2         4         6     -0.00090074
         3         1         2         2         5         1     -0.00024830
         3         1         2         2         5         2      0.00000000
         3         1         2         2         5         3     -0.00048844
         3         1         2         2         5         4      0.00000000
         3         1         2         2         5         5     -0.00024499
         3         1         2         2         5         6      0.00000000
         3         1         2         2         6         1      0.00000000
         3         1         2         2         6         2     -0.00011174
         3         1         2         2         6         3      0.00000000
         3         1         2         2         6         4     -0.00078773
         3         1         2         2         6         5     -0.00000000
         3         1         2         2         6         6     -0.00059528
         3         1         3         3         1         1     -0.00047274
         3         1         3         3         1         2      0.00000000
         3         1         3         3         1         3     -0.00117463
         3         1         3         3         1         4      0.00000000
         3         1         3         3         1         5      0.00002162
         3         1         3         3         1         6      0.00000000
         3         1         3         3         2         1      0.00000000
         3         1         3         3         2         2     -0.00008561
         3         1         3         3         2         3      0.00000000
         3         1         3         3         2         4     -0.00055143
         3         1         3         3         2         5      0.00000000
         3         1         3         3         2         6     -0.00027041
         3         1         3         3         3         1     -0.00068376
         3         1         3         3         3         2      0.00000000
         3         1         3         3         3         3     -0.00185275
         3         1         3         3         3         4      0.00000000
         3         1         3         3         3         5      0.00007573
         3         1         3         3         3         6      0.00000000
         3         1         3         3         4         1      0.00000000
         3         1         3         3         4         2     -0.00025387
         3         1         3         3         4         3      0.00000000
         3         1         3         3         4         4     -0.00165810
         3         1         3         3         4         5      0.00000000
         3         1         3         3         4         6     -0.00090074
         3         1         3         3         5         1     -0.00024830
         3         1         3         3         5         2      0.00000000
         3         1         3         3         5         3     -0.00048844
         3         1         3         3         5         4      0.00000000
         3         1         3         3         5         5     -0.00024499
         3         1         3         3         5         6      0.00000000
[...]
         3         2         3         3         3         2     -0.00027205
         3         2         3         3         3         3     -0.00000000
         3         2         3         3         3         4     -0.00183551
         3         2         3         3         3         5      0.00000000
         3         2         3         3         3         6     -0.00113622
         3         2         3         3         4         1     -0.00044710
         3         2         3         3         4         2      0.00000000
         3         2         3         3         4         3     -0.00147120
         3         2         3         3         4         4     -0.00000000
         3         2         3         3         4         5      0.00029255
         3         2         3         3         4         6     -0.00000000
         3         2         3         3         5         1     -0.00000000
         3         2         3         3         5         2     -0.00004151
         3         2         3         3         5         3     -0.00000000
         3         2         3         3         5         4     -0.00031265
         3         2         3         3         5         5      0.00000000
         3         2         3         3         5         6     -0.00039933
         3         2         3         3         6         1     -0.00023860
         3         2         3         3         6         2     -0.00000000
         3         2         3         3         6         3     -0.00075894
         3         2         3         3         6         4     -0.00000000
         3         2         3         3         6         5      0.00000139
         3         2         3         3         6         6     -0.00000000
         3         2         4         4         1         1     -0.00000000
         3         2         4         4         1         2     -0.00018358
         3         2         4         4         2         1     -0.00013465
         3         2         4         4         2         2     -0.00000000
         3         3         1         1         1         1     -0.07642533
         3         3         1         1         1         2      0.00000000
         3         3         1         1         1         3      0.05559136
         3         3         1         1         1         4     -0.00000000
         3         3         1         1         1         5     -0.00000000
         3         3         1         1         1         6     -0.00304117
         3         3         1         1         1         7     -0.03135946
         3         3         1         1         1         8      0.00000000
         3         3         1         1         1         9      0.00000000
         3         3         1         1         1        10     -0.00000000
         3         3         1         1         1        11      0.00697200
         3         3         1         1         2         1      0.00000000
         3         3         1         1         2         2     -0.04921792
         3         3         1         1         2         3     -0.00000000
         3         3         1         1         2         4      0.05606991
         3         3         1         1         2         5     -0.00738136
         3         3         1         1         2         6      0.00000000
         3         3         1         1         2         7      0.00000000
         3         3         1         1         2         8     -0.00000000
         3         3         1         1         2         9     -0.00000000
         3         3         1         1         2        10     -0.01904368
         3         3         1         1         2        11      0.00000000
         3         3         1         1         3         1      0.05559136
         3         3         1         1         3         2     -0.00000000
         3         3         1         1         3         3     -0.04194636
         3         3         1         1         3         4      0.00000000
         3         3         1         1         3         5      0.00000000
         3         3         1         1         3         6      0.00170531
         3         3         1         1         3         7      0.02534058
         3         3         1         1         3         8     -0.00000000
         3         3         1         1         3         9      0.00000000
         3         3         1         1         3        10     -0.00000000
         3         3         1         1         3        11     -0.00644498
         3         3         1         1         4         1     -0.00000000
         3         3         1         1         4         2      0.05606991
         3         3         1         1         4         3      0.00000000
         3         3         1         1         4         4     -0.07069471
         3         3         1         1         4         5      0.00445973
         3         3         1         1         4         6     -0.00000000
         3         3         1         1         4         7     -0.00000000
         3         3         1         1         4         8      0.00000000
         3         3         1         1         4         9      0.00000000
         3         3         1         1         4        10      0.02547991
         3         3         1         1         4        11      0.00000000
         3         3         1         1         5         1     -0.00000000
         3         3         1         1         5         2     -0.00738136
         3         3         1         1         5         3      0.00000000
         3         3         1         1         5         4      0.00445973
         3         3         1         1         5         5     -0.00455940
         3         3         1         1         5         6      0.00000000
         3         3         1         1         5         7     -0.00000000
         3         3         1         1         5         8      0.00000000
         3         3         1         1         5         9     -0.00000000
         3         3         1         1         5        10     -0.00180768
         3         3         1         1         5        11      0.00000000
         3         3         1         1         6         1     -0.00304117
         3         3         1         1         6         2      0.00000000
         3         3         1         1         6         3      0.00170531
         3         3         1         1         6         4     -0.00000000
         3         3         1         1         6         5      0.00000000
         3         3         1         1         6         6     -0.00054034
         3         3         1         1         6         7     -0.00022188
         3         3         1         1         6         8     -0.00000000
         3         3         1         1         6         9      0.00000000
         3         3         1         1         6        10     -0.00000000
         3         3         1         1         6        11     -0.00009196
         3         3         1         1         7         1     -0.03135946
         3         3         1         1         7         2      0.00000000
         3         3         1         1         7         3      0.02534058
         3         3         1         1         7         4     -0.00000000
         3         3         1         1         7         5     -0.00000000
         3         3         1         1         7         6     -0.00022188
         3         3         1         1         7         7     -0.01833460
         3         3         1         1         7         8     -0.00000000
         3         3         1         1         7         9      0.00000000
         3         3         1         1         7        10     -0.00000000
         3         3         1         1         7        11      0.00599741
         3         3         1         1         8         1      0.00000000
         3         3         1         1         8         2     -0.00000000
         3         3         1         1         8         3     -0.00000000
         3         3         1         1         8         4      0.00000000
         3         3         1         1         8         5      0.00000000
         3         3         1         1         8         6     -0.00000000
         3         3         1         1         8         7     -0.00000000
         3         3         1         1         8         8     -0.00637989
         3         3         1         1         8         9     -0.00000000
         3         3         1         1         8        10      0.00000000
         3         3         1         1         8        11     -0.00000000
         3         3         1         1         9         1      0.00000000
         3         3         1         1         9         2     -0.00000000
         3         3         1         1         9         3      0.00000000
         3         3         1         1         9         4      0.00000000
         3         3         1         1         9         5     -0.00000000
         3         3         1         1         9         6      0.00000000
         3         3         1         1         9         7      0.00000000
         3         3         1         1         9         8     -0.00000000
         3         3         1         1         9         9     -0.00202031
         3         3         1         1         9        10     -0.00000000
         3         3         1         1         9        11     -0.00000000
         3         3         1         1        10         1     -0.00000000
         3         3         1         1        10         2     -0.01904368
         3         3         1         1        10         3      0.00000000
         3         3         1         1        10         4      0.02547991
         3         3         1         1        10         5     -0.00180768
         3         3         1         1        10         6     -0.00000000
         3         3         1         1        10         7     -0.00000000
         3         3         1         1        10         8      0.00000000
         3         3         1         1        10         9     -0.00000000
         3         3         1         1        10        10     -0.01193665
         3         3         1         1        10        11      0.00000000
         3         3         1         1        11         1      0.00697200
         3         3         1         1        11         2      0.00000000
         3         3         1         1        11         3     -0.00644498
         3         3         1         1        11         4      0.00000000
         3         3         1         1        11         5      0.00000000
         3         3         1         1        11         6     -0.00009196
         3         3         1         1        11         7      0.00599741
         3         3         1         1        11         8     -0.00000000
         3         3         1         1        11         9     -0.00000000
         3         3         1         1        11        10      0.00000000
         3         3         1         1        11        11     -0.00355044
         3         3         2         2         1         1     -0.11852134
         3         3         2         2         1         2     -0.00000000
         3         3         2         2         1         3     -0.08386248
         3         3         2         2         1         4      0.00000000
         3         3         2         2         1         5     -0.03193158
         3         3         2         2         1         6     -0.00000000
         3         3         2         2         2         1     -0.00000000
         3         3         2         2         2         2     -0.00098702
         3         3         2         2         2         3     -0.00000000
         3         3         2         2         2         4     -0.00196670
         3         3         2         2         2         5      0.00000000
         3         3         2         2         2         6     -0.00136127
         3         3         2         2         3         1     -0.08386248
         3         3         2         2         3         2     -0.00000000
         3         3         2         2         3         3     -0.06188594
         3         3         2         2         3         4     -0.00000000
         3         3         2         2         3         5     -0.02521271
         3         3         2         2         3         6     -0.00000000
         3         3         2         2         4         1      0.00000000
         3         3         2         2         4         2     -0.00196670
         3         3         2         2         4         3     -0.00000000
         3         3         2         2         4         4     -0.00402013
         3         3         2         2         4         5      0.00000000
         3         3         2         2         4         6     -0.00267254
         3         3         2         2         5         1     -0.03193158
         3         3         2         2         5         2      0.00000000
         3         3         2         2         5         3     -0.02521271
         3         3         2         2         5         4      0.00000000
         3         3         2         2         5         5     -0.01353740
         3         3         2         2         5         6     -0.00000000
         3         3         2         2         6         1     -0.00000000
         3         3         2         2         6         2     -0.00136127
         3         3         2         2         6         3     -0.00000000
         3         3         2         2         6         4     -0.00267254
         3         3         2         2         6         5     -0.00000000
         3         3         2         2         6         6     -0.00238614
         3         3         3         3         1         1     -0.11852134
         3         3         3         3         1         2     -0.00000000
         3         3         3         3         1         3     -0.08386248
         3         3         3         3         1         4      0.00000000
         3         3         3         3         1         5     -0.03193158
         3         3         3         3         1         6     -0.00000000
         3         3         3         3         2         1     -0.00000000
         3         3         3         3         2         2     -0.00098702
         3         3         3         3         2         3     -0.00000000
         3         3         3         3         2         4     -0.00196670
         3         3         3         3         2         5      0.00000000
         3         3         3         3         2         6     -0.00136127
         3         3         3         3         3         1     -0.08386248
         3         3         3         3         3         2     -0.00000000
         3         3         3         3         3         3     -0.06188594
         3         3         3         3         3         4     -0.00000000
         3         3         3         3         3         5     -0.02521271
         3         3         3         3         3         6     -0.00000000
         3         3         3         3         4         1      0.00000000
         3         3         3         3         4         2     -0.00196670
         3         3         3         3         4         3     -0.00000000
         3         3         3         3         4         4     -0.00402013
         3         3         3         3         4         5      0.00000000
         3         3         3         3         4         6     -0.00267254
         3         3         3         3         5         1     -0.03193158
         3         3         3         3         5         2      0.00000000
         3         3         3         3         5         3     -0.02521271
         3         3         3         3         5         4      0.00000000
         3         3         3         3         5         5     -0.01353740
         3         3         3         3         5         6     -0.00000000
         3         3         3         3         6         1     -0.00000000
         3         3         3         3         6         2     -0.00136127
         3         3         3         3         6         3     -0.00000000
         3         3         3         3         6         4     -0.00267254
         3         3         3         3         6         5     -0.00000000
         3         3         3         3         6         6     -0.00238614
         3         3         4         4         1         1     -0.00637989
         3         3         4         4         1         2     -0.00000000
         3         3         4         4         2         1     -0.00000000
         3         3         4         4         2         2     -0.00202031


 RESULTS
 =======

  Reference energy                    -14.869231121669

  Correlated core orbitals:             1.1       2.1
  Orbital energies:                    -2.4475   -2.4472

  CISD core-core energy                -0.000353170412
  CISD core-valence energy             -0.000519909882
  CISD valence correlation energy      -0.031133776010

  CISD singlet pair energy             -0.031842557638
  CISD triplet pair energy             -0.000143700202
  CISD correlation energy              -0.032006856304

 !CISD total energy                   -14.901237977972

 Timing summary (sec):

 STEP                 CPU(USER)    SYS     CPU(TOT)    WALL
 CCSD iterations         0.12      0.02      0.14      0.13

 Program statistics:

 Available memory in ccsd:                39999164
 Min. memory needed in ccsd:                  7205
 Max. memory used in ccsd:                    7604
 Max. memory used in cckext:                 39505 (32 integral passes)



 **********************************************************************************************************************************
 DATASETS  * FILE   NREC   LENGTH (MB)   RECORD NAMES
              1      20       30.10       500      700      610      900      950      970     1000      129      960     1100   
                                          VAR     GEOM    BASINP   SYMINP    ZMAT    AOBASIS   BASIS     P2S    ABASIS      S 
                                         1400     1410     1200     1210     1080     1600     1650     1300     1700     1380   
                                           T        V       H0       H01     AOSYM     SMH    MOLCAS    ERIS     OPER     JKOP   

              3       5       14.77       500      610      700     1000     2100   
                                          VAR    BASINP    GEOM     BASIS     RHF  

 PROGRAMS   *        TOTAL      CISD       INT   RESTART
 CPU TIMES  *         0.40      0.19      0.13      0.01
 REAL TIME  *         0.58 SEC
 DISK USED  *        49.46 MB
 **********************************************************************************************************************************
 Molecular orbitals read from record     2100.3  Type=RHF/CANONICAL (state 1.1)
 Occupation numbers read from record     2100.3  Type=RHF/RHF (state 1.1)
 Orbital energies read from record       2100.3  Type=RHF/CANONICAL (state 1.1)
 Redundancy group numbers read from rec  2100.3  Type=RHF/RHF (state 1.1)

 CISD/cc-pVDZ energy=    -14.901237977972

            CISD
    -14.90123798
 **********************************************************************************************************************************
 Molpro calculation terminated
