
 Primary working directories    : /scr/yuriaoto/job.023582/molpro.Hb2cErQNCR
 Secondary working directories  : /scr/yuriaoto/job.023582/molpro.Hb2cErQNCR
 Wavefunction directory         : /scr/yuriaoto/job.023582/
 Main file repository           : /scr/yuriaoto/job.023582/molpro.Hb2cErQNCR/

 id        : yuriaoto

 Nodes             nprocs
 t-rex.ufabc.int.br    1

 Using customized tuning parameters: mindgm=8; mindgv=16; mindgc=1; mindgr=1; noblas=0; minvec=7
 default implementation of scratch files=df  


 Variables initialized (933), CPU time= 0.00 sec
 ***,
 memory,40,m
 gprint,orbital,basis,civector
 gthresh,thrprint=0,printci=0.0
 file,3,wfu.dat,old
 
 {ccsd,CC_NORM_MAX=10.0
 nosingle
 thresh,printci=0.0,ENERGY=1.0E-10,COEFF=1.0E-12
 print,ref=1
 core,0
 wf,14,1,0;
 }
 
 Commands  initialized (760), CPU time= 0.02 sec, 617 directives.
 Default parameters read. Elapsed time= 0.05 sec

 Checking input...
 Passed
1


                                         ***  PROGRAM SYSTEM MOLPRO  ***
                                       Copyright, TTI GmbH Stuttgart, 2015
                                    Version 2019.2 linked Abr  7 2019 15:10:35


 **********************************************************************************************************************************
 LABEL *                                                                                 
  64 bit serial version                                                                  DATE: 05-Jun-20          TIME: 21:21:23  
 **********************************************************************************************************************************

 SHA1:             3a8a58c585c929645742fb5a1b7541a4ad1da699
 **********************************************************************************************************************************


 THRESHOLDS:

 ZERO    =  1.00D-12  ONEINT  =  1.00D-12  TWOINT  =  1.00D-11  PREFAC  =  1.00D-14  XXXXXX  =  1.00D-09  EORDER  =  1.00D-04
 ENERGY  =  0.00D+00  ETEST   =  0.00D+00  EDENS   =  0.00D+00  THRDEDEF=  1.00D-06  GRADIENT=  1.00D-02  STEP    =  1.00D-03
 ORBITAL =  1.00D-05  CIVEC   =  1.00D-05  COEFF   =  1.00D-04  PRINTCI =  0.00D+00  PUNCHCI =  9.90D+01  OPTGRAD =  3.00D-04
 OPTENERG=  1.00D-06  OPTSTEP =  3.00D-04  THRGRAD =  1.00D-10  COMPRESS=  1.00D-11  VARMIN  =  1.00D-07  VARMAX  =  1.00D-03
 THRDOUB =  0.00D+00  THRDIV  =  1.00D-05  THRRED  =  1.00D-07  THRPSP  =  1.00D+00  THRDC   =  1.00D-10  THRCS   =  1.00D-10
 THRNRM  =  1.00D-08  THREQ   =  0.00D+00  THRDE   =  1.00D+00  THRREF  =  1.00D-05  SPARFAC =  1.00D+00  THRDLP  =  1.00D-07
 THRDIA  =  1.00D-10  THRDLS  =  1.00D-07  THRGPS  =  0.00D+00  THRKEX  =  0.00D+00  THRDIS  =  2.00D-01  THRVAR  =  1.00D-10
 THRLOC  =  1.00D-06  THRGAP  =  1.00D-06  THRLOCT = -1.00D+00  THRGAPT = -1.00D+00  THRORB  =  1.00D-06  THRMLTP =  0.00D+00
 THRCPQCI=  1.00D-10  KEXTA   =  0.00D+00  THRCOARS=  0.00D+00  SYMTOL  =  1.00D-06  GRADTOL =  1.00D-06  THROVL  =  1.00D-08
 THRORTH =  1.00D-08  GRID    =  1.00D-06  GRIDMAX =  1.00D-03  DTMAX   =  0.00D+00  THROCCDE=  1.00D-01  THROCCDE=  1.00D-01
 THRPRINT=  0.00D+00


 Variable memory set to   40000000 words,  buffer space 



 Permanent file  3  wfu.dat  assigned.  Implementation=df    Size= 14.08 MB


 PROGRAM * RESTART 


 Reading variables from file 3

 _FNUC           =      0.00000000
 _BASIS          =    6-31G
 _NELEC          =     14.00000000
 _PROGRAM        =    RHF-SCF
 _DMX_SCF        =      0.00000000
 _DMY_SCF        =      0.00000000
 _DMZ_SCF        =      0.00000000
 _HOMO           =      1.20000000
 _EHOMO          =     -0.47733994
 _LUMO           =      1.60000000
 _ELUMO          =     -0.02720870
 _ENERGY         =   -108.56037943
 _ENERGY_METHOD  =    RHF
 _ENERGY_BASIS   =    6-31G
 _ENUC           =     16.33333333
 _EPS1(1:5)      =    -15.81771777    -1.22408989    -0.55476884     0.90356566     1.08163906
 _EPS2(1:2)      =     -0.47733994     0.86881343
 _EPS3(1:2)      =     -0.47733994     0.86881343
 _EPS5(1:5)      =    -15.81713369    -0.91208671     0.20403463     0.84931301     1.30241938
 _EPS6(1:2)      =     -0.02720870     0.95746624
 _EPS7(1:2)      =     -0.02720870     0.95746624
 _IPROC_MPP      =      0.00000000
 _IPROC_MPPX     =      0.00000000
 _ORBITAL        =   2100.30000000
 _STATUS         =      1.00000000
 _DATE           =    20-Mar-20
 _LASTORB        =    RHF
 _OUTPUT         =    /scr/yuriaoto/job.022805/RHF.xml
 _PGROUP         =    D2h 
 _TIME           =    18:50:32
 R               =      3.00000000

 Geometry written to block  1 of record 700


 **********************************************************************************************************************************
 DATASETS  * FILE   NREC   LENGTH (MB)   RECORD NAMES
              3       5       14.77       500      610      700     1000     2100   
                                          VAR    BASINP    GEOM     BASIS     RHF  

 PROGRAMS   *        TOTAL   RESTART
 CPU TIMES  *         0.20      0.03
 REAL TIME  *         0.23 SEC
 DISK USED  *        26.84 MB
 **********************************************************************************************************************************


 Recomputing integrals since basis changed


 Using spherical harmonics

 Library entry N      S 6-31G                selected for orbital group  1
 Library entry N      P 6-31G                selected for orbital group  1


 PROGRAM * SEWARD (Integral evaluation for generally contracted gaussian basis sets)     Author: Roland Lindh, 1990

 Geometry written to block  1 of record 700

 Orientation using atomic masses  
 Molecule type: Linear
 User-specified symmetry elements: X,Y,Z
 Symmetry elements: X,Y,Z
 Rotational constants:      28.6329822     28.6329822      0.0000000 GHz  (calculated with average atomic masses)

 Point group  D2h 



 ATOMIC COORDINATES

 NR  ATOM    CHARGE       X              Y              Z

   1  N1      7.00    0.000000000    0.000000000   -1.500000000
   2  N2      7.00    0.000000000    0.000000000    1.500000000

 Bond lengths in Bohr (Angstrom)

 1-2  3.000000000
     ( 1.587531633)


 BASIS DATA

   Nr Sym  Nuc  Type         Exponents   Contraction coefficients

    1.1 Ag    1  1s        4173.511500     0.001835
              2  1s         627.457910     0.013995
                            142.902090     0.068587
                             40.234329     0.232241
                             12.820213     0.469070
                              4.390437     0.360455
    2.1 Ag    1  1s          11.626362    -0.114961
              2  1s           2.716280    -0.169117
                              0.772218     1.145852
    3.1 Ag    1  1s           0.212032     1.000000
              2  1s    
    4.1 Ag    1  2pz         11.626362     0.067580
              2 -2pz          2.716280     0.323907
                              0.772218     0.740895
    5.1 Ag    1  2pz          0.212032     1.000000
              2 -2pz   
    1.2 B3u   1  2px         11.626362     0.067580
              2  2px          2.716280     0.323907
                              0.772218     0.740895
    2.2 B3u   1  2px          0.212032     1.000000
              2  2px   
    1.3 B2u   1  2py         11.626362     0.067580
              2  2py          2.716280     0.323907
                              0.772218     0.740895
    2.3 B2u   1  2py          0.212032     1.000000
              2  2py   
    1.5 B1u   1  1s        4173.511500     0.001835
              2 -1s         627.457910     0.013995
                            142.902090     0.068587
                             40.234329     0.232241
                             12.820213     0.469070
                              4.390437     0.360455
    2.5 B1u   1  1s          11.626362    -0.114961
              2 -1s           2.716280    -0.169117
                              0.772218     1.145852
    3.5 B1u   1  1s           0.212032     1.000000
              2 -1s    
    4.5 B1u   1  2pz         11.626362     0.067580
              2  2pz          2.716280     0.323907
                              0.772218     0.740895
    5.5 B1u   1  2pz          0.212032     1.000000
              2  2pz   
    1.6 B2g   1  2px         11.626362     0.067580
              2 -2px          2.716280     0.323907
                              0.772218     0.740895
    2.6 B2g   1  2px          0.212032     1.000000
              2 -2px   
    1.7 B3g   1  2py         11.626362     0.067580
              2 -2py          2.716280     0.323907
                              0.772218     0.740895
    2.7 B3g   1  2py          0.212032     1.000000
              2 -2py   

 NUCLEAR CHARGE:                   14
 NUMBER OF PRIMITIVE AOS:          44
 NUMBER OF SYMMETRY AOS:           44
 NUMBER OF CONTRACTIONS:           18   (    5Ag  +    2B3u +    2B2u +    0B1g +    5B1u +    2B2g +    2B3g +    0Au  )
 NUMBER OF CORE ORBITALS:           2   (    1Ag  +    0B3u +    0B2u +    0B1g +    1B1u +    0B2g +    0B3g +    0Au  )
 NUMBER OF VALENCE ORBITALS:        8   (    2Ag  +    1B3u +    1B2u +    0B1g +    2B1u +    1B2g +    1B3g +    0Au  )


 NUCLEAR REPULSION ENERGY   16.33333333

 Eigenvalues of metric

         1 0.238E+00 0.415E+00 0.926E+00 0.155E+01 0.276E+01
         2 0.544E+00 0.186E+01
         3 0.544E+00 0.186E+01
         5 0.420E-01 0.342E+00 0.806E+00 0.100E+01 0.192E+01
         6 0.352E+00 0.124E+01
         7 0.352E+00 0.124E+01


 Contracted 2-electron integrals neglected if value below      1.0D-11
 AO integral compression algorithm  1   Integral accuracy      1.0D-11

     0.262 MB (compressed) written to integral file (100.0%)


 NUMBER OF SORTED TWO-ELECTRON INTEGRALS:       2829.     BUFFER LENGTH:  32768
 NUMBER OF SEGMENTS:   1  SEGMENT LENGTH:       2829      RECORD LENGTH: 524288

 Memory used in sort:       0.56 MW

 SORT1 READ        8184. AND WROTE        2829. INTEGRALS IN      1 RECORDS. CPU TIME:     0.00 SEC, REAL TIME:     0.00 SEC
 SORT2 READ        2829. AND WROTE        2829. INTEGRALS IN      1 RECORDS. CPU TIME:     0.01 SEC, REAL TIME:     0.01 SEC

 FILE SIZES:   FILE 1:    30.2 MBYTE,  FILE 4:     4.2 MBYTE,   TOTAL:     34.4 MBYTE

 OPERATOR DM      FOR CENTER  0  COORDINATES:    0.000000    0.000000    0.000000


 **********************************************************************************************************************************
 DATASETS  * FILE   NREC   LENGTH (MB)   RECORD NAMES
              1      19       29.97       500      700      610      900      950      970     1000      129      960     1100   
                                          VAR     GEOM    BASINP   SYMINP    ZMAT    AOBASIS   BASIS     P2S    ABASIS      S 
                                         1400     1410     1200     1210     1080     1600     1650     1300     1700   
                                           T        V       H0       H01     AOSYM     SMH    MOLCAS    ERIS     OPER   

              3       5       14.77       500      610      700     1000     2100   
                                          VAR    BASINP    GEOM     BASIS     RHF  

 PROGRAMS   *        TOTAL       INT   RESTART
 CPU TIMES  *         0.35      0.15      0.03
 REAL TIME  *         0.49 SEC
 DISK USED  *        49.44 MB
 **********************************************************************************************************************************


 PROGRAM * CCSD (Closed-shell coupled cluster)     Authors: C. Hampel, H.-J. Werner, 1991, M. Deegan, P.J. Knowles, 1992


 Input parameters for THRESH:

 ENERGY   =    1.00D-10
 COEFF    =    1.00D-12
 PRINTCI  =    0.000000
 THRPRINT =    0.000000

 Convergence thresholds:  THRVAR = 1.00D-24  THRDEN = 1.00D-10

 Number of closed-shell orbitals:   7 (   3   1   1   0   2   0   0 )
 Number of external orbitals:      11 (   2   1   1   0   3   2   2 )

 Molecular orbitals read from record     2100.3  Type=RHF/CANONICAL (state 1.1)

 Number of N-1 electron functions:               0
 Number of N-2 electron functions:              28
 Number of singly external CSFs:                 0
 Number of doubly external CSFs:               493
 Total number of CSFs:                         494

 Length of J-op  integral file:               0.00 MB
 Length of K-op  integral file:               0.04 MB
 Length of 3-ext integral record:             0.00 MB

 Integral transformation finished. Total CPU:   0.00 sec, npass=  1  Memory used:   0.07 MW

 Reference energy:                   -108.56037943

 MP2 singlet pair energy:              -0.25764248
 MP2 triplet pair energy:              -0.21014109
 MP2 correlation energy:               -0.46778357
 MP2 total energy:                   -109.02816300

 SCS-MP2 correlation energy:           -0.43992543   (PS=  1.200000  PT=  0.333333)
 SCS-MP2 total energy:               -109.00030486

 ITER.      SQ.NORM     CORR.ENERGY   TOTAL ENERGY   ENERGY CHANGE        DEN1      VAR(S)    VAR(P)  DIIS     TIME  TIME/IT
   1      1.12091048    -0.36634028  -108.92671971     0.10144329     0.19802860  0.00D+00  0.90D-01  1  1     0.01     0.01
   2      1.17536925    -0.33635302  -108.89673245     0.02998726    -0.05414190  0.00D+00  0.30D-02  2  2     0.02     0.01
   3      1.20023161    -0.33883944  -108.89921888    -0.00248642    -0.00776848  0.00D+00  0.85D-03  3  3     0.02     0.01
   4      1.25053774    -0.34666650  -108.90704593    -0.00782705    -0.01156510  0.00D+00  0.17D-03  4  4     0.03     0.01
   5      1.26422062    -0.34533034  -108.90570977     0.00133616    -0.00152764  0.00D+00  0.14D-04  5  5     0.03     0.01
   6      1.27096175    -0.34586731  -108.90624674    -0.00053697    -0.00110144  0.00D+00  0.14D-05  6  6     0.04     0.01
   7      1.27115233    -0.34588732  -108.90626675    -0.00002001    -0.00002250  0.00D+00  0.13D-06  6  1     0.04     0.01
   8      1.27122680    -0.34587328  -108.90625272     0.00001404     0.00002445  0.00D+00  0.19D-07  6  3     0.05     0.01
   9      1.27144976    -0.34589477  -108.90627421    -0.00002149    -0.00005190  0.00D+00  0.33D-08  6  2     0.05     0.01
  10      1.27134856    -0.34588843  -108.90626786     0.00000635     0.00002199  0.00D+00  0.15D-09  6  4     0.05     0.01
  11      1.27134865    -0.34588860  -108.90626803    -0.00000017    -0.00000050  0.00D+00  0.20D-10  6  5     0.06     0.01
  12      1.27135276    -0.34588887  -108.90626830    -0.00000027    -0.00000076  0.00D+00  0.17D-11  6  1     0.06     0.01
  13      1.27135373    -0.34588889  -108.90626832    -0.00000002    -0.00000016  0.00D+00  0.15D-12  6  6     0.07     0.01
  14      1.27135346    -0.34588886  -108.90626830     0.00000002     0.00000006  0.00D+00  0.25D-13  6  3     0.07     0.00
  15      1.27135351    -0.34588887  -108.90626830    -0.00000000    -0.00000001  0.00D+00  0.39D-14  6  2     0.08     0.00
  16      1.27135351    -0.34588887  -108.90626830     0.00000000     0.00000000  0.00D+00  0.79D-15  6  4     0.08     0.00
  17      1.27135354    -0.34588887  -108.90626830    -0.00000000    -0.00000001  0.00D+00  0.56D-16  6  5     0.08     0.00
  18      1.27135353    -0.34588887  -108.90626830     0.00000000     0.00000000  0.00D+00  0.45D-17  6  1     0.09     0.00
  19      1.27135353    -0.34588887  -108.90626830    -0.00000000    -0.00000000  0.00D+00  0.46D-18  6  6     0.09     0.00
  20      1.27135353    -0.34588887  -108.90626830     0.00000000     0.00000000  0.00D+00  0.48D-19  6  3     0.09     0.00
  21      1.27135353    -0.34588887  -108.90626830    -0.00000000    -0.00000000  0.00D+00  0.18D-20  6  2     0.10     0.00
  22      1.27135353    -0.34588887  -108.90626830    -0.00000000    -0.00000000  0.00D+00  0.20D-21  6  4     0.10     0.00
  23      1.27135353    -0.34588887  -108.90626830    -0.00000000    -0.00000000  0.00D+00  0.25D-22  6  5     0.10     0.00
  24      1.27135353    -0.34588887  -108.90626830    -0.00000000    -0.00000000  0.00D+00  0.40D-23  6  1     0.11     0.00
  25      1.27135353    -0.34588887  -108.90626830     0.00000000     0.00000000  0.00D+00  0.76D-24  6  6     0.11     0.00


 Doubles amplitudes (print threshold =  0.000E+00):

         I         J         SYM. A    SYM. B    A         B      T(IJ, AB)

         1         1         1         1         1         1     -0.00058675
         1         1         1         1         1         2     -0.00005930
         1         1         1         1         2         1     -0.00005930
         1         1         1         1         2         2     -0.00063029
         1         1         2         2         1         1     -0.00061749
         1         1         3         3         1         1     -0.00061749
         1         1         5         5         1         1     -0.00052048
         1         1         5         5         1         2      0.00033676
         1         1         5         5         1         3      0.00036859
         1         1         5         5         2         1      0.00033676
         1         1         5         5         2         2     -0.00056917
         1         1         5         5         2         3      0.00005465
         1         1         5         5         3         1      0.00036859
         1         1         5         5         3         2      0.00005465
         1         1         5         5         3         3     -0.00042316
         1         1         6         6         1         1     -0.00025116
         1         1         6         6         1         2      0.00045861
         1         1         6         6         2         1      0.00045861
         1         1         6         6         2         2     -0.00056324
         1         1         7         7         1         1     -0.00025116
         1         1         7         7         1         2      0.00045861
         1         1         7         7         2         1      0.00045861
         1         1         7         7         2         2     -0.00056324
         2         1         1         1         1         1      0.00002616
         2         1         1         1         1         2      0.00025202
         2         1         1         1         2         1      0.00045125
         2         1         1         1         2         2     -0.00024479
         2         1         2         2         1         1     -0.00060052
         2         1         3         3         1         1     -0.00060052
         2         1         5         5         1         1     -0.00061128
         2         1         5         5         1         2      0.00076279
         2         1         5         5         1         3      0.00006204
         2         1         5         5         2         1      0.00046239
         2         1         5         5         2         2     -0.00048791
         2         1         5         5         2         3     -0.00011855
         2         1         5         5         3         1      0.00012542
         2         1         5         5         3         2     -0.00027271
         2         1         5         5         3         3      0.00010621
         2         1         6         6         1         1     -0.00056971
         2         1         6         6         1         2      0.00079494
         2         1         6         6         2         1      0.00049120
         2         1         6         6         2         2     -0.00055292
         2         1         7         7         1         1     -0.00056971
         2         1         7         7         1         2      0.00079494
         2         1         7         7         2         1      0.00049120
         2         1         7         7         2         2     -0.00055292
         2         2         1         1         1         1     -0.00479996
         2         2         1         1         1         2     -0.00413128
         2         2         1         1         2         1     -0.00413128
         2         2         1         1         2         2     -0.01050881
         2         2         2         2         1         1     -0.00642129
         2         2         3         3         1         1     -0.00642129
         2         2         5         5         1         1     -0.03241369
         2         2         5         5         1         2      0.00808737
         2         2         5         5         1         3      0.01046293
         2         2         5         5         2         1      0.00808737
         2         2         5         5         2         2     -0.00438702
         2         2         5         5         2         3     -0.00194248
         2         2         5         5         3         1      0.01046293
         2         2         5         5         3         2     -0.00194248
         2         2         5         5         3         3     -0.00687190
         2         2         6         6         1         1     -0.01584743
         2         2         6         6         1         2      0.00792456
         2         2         6         6         2         1      0.00792456
         2         2         6         6         2         2     -0.00498183
         2         2         7         7         1         1     -0.01584743
         2         2         7         7         1         2      0.00792456
         2         2         7         7         2         1      0.00792456
         2         2         7         7         2         2     -0.00498183
         3         1         1         1         1         1      0.00011257
         3         1         1         1         1         2     -0.00047143
         3         1         1         1         2         1      0.00027503
         3         1         1         1         2         2     -0.00010658
         3         1         2         2         1         1      0.00022065
         3         1         3         3         1         1      0.00022065
         3         1         5         5         1         1     -0.00004572
         3         1         5         5         1         2     -0.00005715
         3         1         5         5         1         3      0.00001769
         3         1         5         5         2         1     -0.00038061
         3         1         5         5         2         2      0.00023753
         3         1         5         5         2         3      0.00020163
         3         1         5         5         3         1      0.00055712
         3         1         5         5         3         2     -0.00051245
         3         1         5         5         3         3     -0.00009956
         3         1         6         6         1         1      0.00017543
         3         1         6         6         1         2     -0.00026146
         3         1         6         6         2         1     -0.00007894
         3         1         6         6         2         2      0.00011621
         3         1         7         7         1         1      0.00017543
         3         1         7         7         1         2     -0.00026146
         3         1         7         7         2         1     -0.00007894
         3         1         7         7         2         2      0.00011621
         3         2         1         1         1         1      0.00989957
         3         2         1         1         1         2      0.00351295
         3         2         1         1         2         1     -0.00438915
         3         2         1         1         2         2     -0.00750079
         3         2         2         2         1         1      0.00256391
         3         2         3         3         1         1      0.00256391
         3         2         5         5         1         1     -0.03117489
         3         2         5         5         1         2      0.00591823
         3         2         5         5         1         3      0.01161302
         3         2         5         5         2         1      0.01443031
         3         2         5         5         2         2      0.00301311
         3         2         5         5         2         3     -0.00923310
         3         2         5         5         3         1      0.01025438
         3         2         5         5         3         2     -0.00506221
         3         2         5         5         3         3     -0.00090305
         3         2         6         6         1         1      0.00788358
         3         2         6         6         1         2     -0.00153995
         3         2         6         6         2         1      0.00021846
         3         2         6         6         2         2      0.00104166
         3         2         7         7         1         1      0.00788358
         3         2         7         7         1         2     -0.00153995
         3         2         7         7         2         1      0.00021846
         3         2         7         7         2         2      0.00104166
         3         3         1         1         1         1     -0.02137118
         3         3         1         1         1         2      0.00747717
         3         3         1         1         2         1      0.00747717
         3         3         1         1         2         2     -0.00510961
         3         3         2         2         1         1     -0.00279586
         3         3         3         3         1         1     -0.00279586
         3         3         5         5         1         1     -0.08679461
         3         3         5         5         1         2      0.02940938
         3         3         5         5         1         3     -0.00223514
         3         3         5         5         2         1      0.02940938
         3         3         5         5         2         2     -0.02852997
         3         3         5         5         2         3      0.00360431
         3         3         5         5         3         1     -0.00223514
         3         3         5         5         3         2      0.00360431
         3         3         5         5         3         3     -0.00332959
         3         3         6         6         1         1     -0.02431422
         3         3         6         6         1         2      0.00319746
         3         3         6         6         2         1      0.00319746
         3         3         6         6         2         2     -0.00218869
         3         3         7         7         1         1     -0.02431422
         3         3         7         7         1         2      0.00319746
         3         3         7         7         2         1      0.00319746
         3         3         7         7         2         2     -0.00218869
         4         4         1         1         1         1     -0.00460597
         4         4         1         1         1         2     -0.00374176
         4         4         1         1         2         1     -0.00374176
         4         4         1         1         2         2     -0.00687338
         4         4         2         2         1         1     -0.01787131
         4         4         3         3         1         1     -0.00115368
         4         4         5         5         1         1     -0.01860826
         4         4         5         5         1         2      0.00159358
         4         4         5         5         1         3      0.00104367
         4         4         5         5         2         1      0.00159358
         4         4         5         5         2         2     -0.00163964
         4         4         5         5         2         3      0.00112937
         4         4         5         5         3         1      0.00104367
         4         4         5         5         3         2      0.00112937
         4         4         5         5         3         3     -0.00368277
         4         4         6         6         1         1     -0.25049334
         4         4         6         6         1         2      0.03231631
         4         4         6         6         2         1      0.03231631
         4         4         6         6         2         2     -0.01250872
         4         4         7         7         1         1     -0.02380780
         4         4         7         7         1         2      0.00232968
         4         4         7         7         2         1      0.00232968
         4         4         7         7         2         2     -0.00075705
         5         5         1         1         1         1     -0.00460597
         5         5         1         1         1         2     -0.00374176
         5         5         1         1         2         1     -0.00374176
         5         5         1         1         2         2     -0.00687338
         5         5         2         2         1         1     -0.00115368
         5         5         3         3         1         1     -0.01787131
         5         5         5         5         1         1     -0.01860826
         5         5         5         5         1         2      0.00159358
         5         5         5         5         1         3      0.00104367
         5         5         5         5         2         1      0.00159358
         5         5         5         5         2         2     -0.00163964
         5         5         5         5         2         3      0.00112937
         5         5         5         5         3         1      0.00104367
         5         5         5         5         3         2      0.00112937
         5         5         5         5         3         3     -0.00368277
         5         5         6         6         1         1     -0.02380780
         5         5         6         6         1         2      0.00232968
         5         5         6         6         2         1      0.00232968
         5         5         6         6         2         2     -0.00075705
         5         5         7         7         1         1     -0.25049334
         5         5         7         7         1         2      0.03231631
         5         5         7         7         2         1      0.03231631
         5         5         7         7         2         2     -0.01250872
         6         6         1         1         1         1     -0.00058378
         6         6         1         1         1         2     -0.00006478
         6         6         1         1         2         1     -0.00006478
         6         6         1         1         2         2     -0.00062368
         6         6         2         2         1         1     -0.00061106
         6         6         3         3         1         1     -0.00061106
         6         6         5         5         1         1     -0.00053187
         6         6         5         5         1         2      0.00034818
         6         6         5         5         1         3      0.00037012
         6         6         5         5         2         1      0.00034818
         6         6         5         5         2         2     -0.00058037
         6         6         5         5         2         3      0.00005242
         6         6         5         5         3         1      0.00037012
         6         6         5         5         3         2      0.00005242
         6         6         5         5         3         3     -0.00042310
         6         6         6         6         1         1     -0.00025802
         6         6         6         6         1         2      0.00046437
         6         6         6         6         2         1      0.00046437
         6         6         6         6         2         2     -0.00056920
         6         6         7         7         1         1     -0.00025802
         6         6         7         7         1         2      0.00046437
         6         6         7         7         2         1      0.00046437
         6         6         7         7         2         2     -0.00056920
         7         6         1         1         1         1     -0.00008878
         7         6         1         1         1         2      0.00048507
         7         6         1         1         2         1      0.00026467
         7         6         1         1         2         2     -0.00016974
         7         6         2         2         1         1     -0.00068901
         7         6         3         3         1         1     -0.00068901
         7         6         5         5         1         1     -0.00065684
         7         6         5         5         1         2      0.00084516
         7         6         5         5         1         3      0.00006673
         7         6         5         5         2         1      0.00063345
         7         6         5         5         2         2     -0.00056398
         7         6         5         5         2         3     -0.00021835
         7         6         5         5         3         1     -0.00013326
         7         6         5         5         3         2     -0.00005199
         7         6         5         5         3         3      0.00016180
         7         6         6         6         1         1     -0.00070564
         7         6         6         6         1         2      0.00093678
         7         6         6         6         2         1      0.00050331
         7         6         6         6         2         2     -0.00057884
         7         6         7         7         1         1     -0.00070564
         7         6         7         7         1         2      0.00093678
         7         6         7         7         2         1      0.00050331
         7         6         7         7         2         2     -0.00057884
         7         7         1         1         1         1     -0.01514010
         7         7         1         1         1         2     -0.00133580
         7         7         1         1         2         1     -0.00133580
         7         7         1         1         2         2     -0.00256229
         7         7         2         2         1         1     -0.00766565
         7         7         3         3         1         1     -0.00766565
         7         7         5         5         1         1     -0.02880139
         7         7         5         5         1         2      0.00642304
         7         7         5         5         1         3      0.00124495
         7         7         5         5         2         1      0.00642304
         7         7         5         5         2         2     -0.01314353
         7         7         5         5         2         3      0.00597947
         7         7         5         5         3         1      0.00124495
         7         7         5         5         3         2      0.00597947
         7         7         5         5         3         3     -0.00662619
         7         7         6         6         1         1     -0.04805256
         7         7         6         6         1         2      0.01158670
         7         7         6         6         2         1      0.01158670
         7         7         6         6         2         2     -0.00609438
         7         7         7         7         1         1     -0.04805256
         7         7         7         7         1         2      0.01158670
         7         7         7         7         2         1      0.01158670
         7         7         7         7         2         2     -0.00609438
         4         1         1         2         1         1      0.00038231
         4         1         1         2         2         1      0.00022822
         4         1         2         1         1         1     -0.00019376
         4         1         2         1         1         2     -0.00012202
         4         1         5         6         1         1     -0.00047639
         4         1         5         6         1         2      0.00035338
         4         1         5         6         2         1     -0.00021006
         4         1         5         6         2         2      0.00016618
         4         1         5         6         3         1      0.00040829
         4         1         5         6         3         2     -0.00032005
         4         1         6         5         1         1     -0.00003233
         4         1         6         5         1         2     -0.00014545
         4         1         6         5         1         3      0.00007371
         4         1         6         5         2         1     -0.00005793
         4         1         6         5         2         2     -0.00008228
         4         1         6         5         2         3      0.00014905
         4         2         1         2         1         1      0.00561475
         4         2         1         2         2         1      0.00473420
         4         2         2         1         1         1      0.01119428
         4         2         2         1         1         2      0.01183316
         4         2         5         6         1         1     -0.03159176
         4         2         5         6         1         2      0.00856441
         4         2         5         6         2         1     -0.00097513
         4         2         5         6         2         2      0.00162459
         4         2         5         6         3         1      0.00201265
         4         2         5         6         3         2     -0.00380196
         4         2         6         5         1         1     -0.03217896
         4         2         6         5         1         2     -0.00018883
         4         2         6         5         1         3      0.00694501
         4         2         6         5         2         1      0.01460406
         4         2         6         5         2         2      0.00111358
         4         2         6         5         2         3     -0.00854896
         4         3         1         2         1         1     -0.00399829
         4         3         1         2         2         1      0.00020282
         4         3         2         1         1         1     -0.01526457
         4         3         2         1         1         2      0.00739638
         4         3         5         6         1         1     -0.03243746
         4         3         5         6         1         2      0.00520079
         4         3         5         6         2         1      0.01455298
         4         3         5         6         2         2     -0.00497747
         4         3         5         6         3         1      0.00240322
         4         3         5         6         3         2      0.00193229
         4         3         6         5         1         1     -0.06652533
         4         3         6         5         1         2      0.02489296
         4         3         6         5         1         3      0.00003550
         4         3         6         5         2         1      0.01419881
         4         3         6         5         2         2     -0.01486566
         4         3         6         5         2         3      0.00161924
         5         1         1         3         1         1      0.00038231
         5         1         1         3         2         1      0.00022822
         5         1         3         1         1         1     -0.00019376
         5         1         3         1         1         2     -0.00012202
         5         1         5         7         1         1     -0.00047639
         5         1         5         7         1         2      0.00035338
         5         1         5         7         2         1     -0.00021006
         5         1         5         7         2         2      0.00016618
         5         1         5         7         3         1      0.00040829
         5         1         5         7         3         2     -0.00032005
         5         1         7         5         1         1     -0.00003233
         5         1         7         5         1         2     -0.00014545
         5         1         7         5         1         3      0.00007371
         5         1         7         5         2         1     -0.00005793
         5         1         7         5         2         2     -0.00008228
         5         1         7         5         2         3      0.00014905
         5         2         1         3         1         1      0.00561475
         5         2         1         3         2         1      0.00473420
         5         2         3         1         1         1      0.01119428
         5         2         3         1         1         2      0.01183316
         5         2         5         7         1         1     -0.03159176
         5         2         5         7         1         2      0.00856441
         5         2         5         7         2         1     -0.00097513
         5         2         5         7         2         2      0.00162459
         5         2         5         7         3         1      0.00201265
         5         2         5         7         3         2     -0.00380196
         5         2         7         5         1         1     -0.03217896
         5         2         7         5         1         2     -0.00018883
         5         2         7         5         1         3      0.00694501
         5         2         7         5         2         1      0.01460406
         5         2         7         5         2         2      0.00111358
         5         2         7         5         2         3     -0.00854896
         5         3         1         3         1         1     -0.00399829
         5         3         1         3         2         1      0.00020282
         5         3         3         1         1         1     -0.01526457
         5         3         3         1         1         2      0.00739638
         5         3         5         7         1         1     -0.03243746
         5         3         5         7         1         2      0.00520079
         5         3         5         7         2         1      0.01455298
         5         3         5         7         2         2     -0.00497747
         5         3         5         7         3         1      0.00240322
         5         3         5         7         3         2      0.00193229
         5         3         7         5         1         1     -0.06652533
         5         3         7         5         1         2      0.02489296
         5         3         7         5         1         3      0.00003550
         5         3         7         5         2         1      0.01419881
         5         3         7         5         2         2     -0.01486566
         5         3         7         5         2         3      0.00161924
         5         4         2         3         1         1     -0.00052216
         5         4         3         2         1         1     -0.01619547
         5         4         6         7         1         1     -0.10879807
         5         4         6         7         1         2      0.01203242
         5         4         6         7         2         1      0.01203242
         5         4         6         7         2         2     -0.00163391
         5         4         7         6         1         1     -0.11788747
         5         4         7         6         1         2      0.01795421
         5         4         7         6         2         1      0.01795421
         5         4         7         6         2         2     -0.01011776
         6         1         1         5         1         1      0.00000217
         6         1         1         5         1         2      0.00046573
         6         1         1         5         1         3     -0.00034413
         6         1         1         5         2         1      0.00061399
         6         1         1         5         2         2     -0.00031131
         6         1         1         5         2         3     -0.00041324
         6         1         2         6         1         1     -0.00048531
         6         1         2         6         1         2      0.00059184
         6         1         3         7         1         1     -0.00048531
         6         1         3         7         1         2      0.00059184
         6         1         5         1         1         1     -0.00000372
         6         1         5         1         1         2      0.00062310
         6         1         5         1         2         1      0.00047223
         6         1         5         1         2         2     -0.00032016
         6         1         5         1         3         1     -0.00034340
         6         1         5         1         3         2     -0.00041530
         6         1         6         2         1         1     -0.00049123
         6         1         6         2         2         1      0.00059807
         6         1         7         3         1         1     -0.00049123
         6         1         7         3         2         1      0.00059807
         6         2         1         5         1         1     -0.00052314
         6         2         1         5         1         2      0.00028380
         6         2         1         5         1         3      0.00027195
         6         2         1         5         2         1      0.00053966
         6         2         1         5         2         2     -0.00043101
         6         2         1         5         2         3     -0.00004314
         6         2         2         6         1         1     -0.00086827
         6         2         2         6         1         2      0.00058939
         6         2         3         7         1         1     -0.00086827
         6         2         3         7         1         2      0.00058939
         6         2         5         1         1         1     -0.00022505
         6         2         5         1         1         2      0.00037559
         6         2         5         1         2         1      0.00013535
         6         2         5         1         2         2     -0.00055278
         6         2         5         1         3         1      0.00015545
         6         2         5         1         3         2      0.00006527
         6         2         6         2         1         1     -0.00054100
         6         2         6         2         2         1      0.00058441
         6         2         7         3         1         1     -0.00054100
         6         2         7         3         2         1      0.00058441
         6         3         1         5         1         1      0.00007874
         6         3         1         5         1         2     -0.00002899
         6         3         1         5         1         3      0.00028233
         6         3         1         5         2         1     -0.00007791
         6         3         1         5         2         2      0.00037669
         6         3         1         5         2         3     -0.00039273
         6         3         2         6         1         1      0.00029674
         6         3         2         6         1         2     -0.00013374
         6         3         3         7         1         1      0.00029674
         6         3         3         7         1         2     -0.00013374
         6         3         5         1         1         1      0.00058548
         6         3         5         1         1         2      0.00021021
         6         3         5         1         2         1     -0.00040960
         6         3         5         1         2         2     -0.00031930
         6         3         5         1         3         1     -0.00022769
         6         3         5         1         3         2      0.00007265
         6         3         6         2         1         1      0.00017545
         6         3         6         2         2         1     -0.00020459
         6         3         7         3         1         1      0.00017545
         6         3         7         3         2         1     -0.00020459
         7         1         1         5         1         1     -0.00052041
         7         1         1         5         1         2      0.00036716
         7         1         1         5         1         3      0.00024385
         7         1         1         5         2         1      0.00023692
         7         1         1         5         2         2     -0.00034678
         7         1         1         5         2         3      0.00002337
         7         1         2         6         1         1     -0.00060810
         7         1         2         6         1         2      0.00066812
         7         1         3         7         1         1     -0.00060810
         7         1         3         7         1         2      0.00066812
         7         1         5         1         1         1     -0.00056268
         7         1         5         1         1         2      0.00063228
         7         1         5         1         2         1      0.00026640
         7         1         5         1         2         2     -0.00058705
         7         1         5         1         3         1      0.00014143
         7         1         5         1         3         2      0.00011503
         7         1         6         2         1         1     -0.00102126
         7         1         6         2         2         1      0.00062559
         7         1         7         3         1         1     -0.00102126
         7         1         7         3         2         1      0.00062559
         7         2         1         5         1         1      0.00489659
         7         2         1         5         1         2      0.00432567
         7         2         1         5         1         3     -0.00630282
         7         2         1         5         2         1      0.00921737
         7         2         1         5         2         2     -0.00270311
         7         2         1         5         2         3     -0.00419969
         7         2         2         6         1         1     -0.01327557
         7         2         2         6         1         2      0.00654332
         7         2         3         7         1         1     -0.01327557
         7         2         3         7         1         2      0.00654332
         7         2         5         1         1         1      0.00162308
         7         2         5         1         1         2      0.00878711
         7         2         5         1         2         1      0.00696870
         7         2         5         1         2         2      0.00037719
         7         2         5         1         3         1     -0.00568590
         7         2         5         1         3         2     -0.00693040
         7         2         6         2         1         1     -0.01121487
         7         2         6         2         2         1      0.00640866
         7         2         7         3         1         1     -0.01121487
         7         2         7         3         2         1      0.00640866
         7         3         1         5         1         1      0.01481873
         7         3         1         5         1         2     -0.02013259
         7         3         1         5         1         3      0.00414334
         7         3         1         5         2         1      0.00688013
         7         3         1         5         2         2     -0.00231178
         7         3         1         5         2         3     -0.00224387
         7         3         2         6         1         1      0.00795613
         7         3         2         6         1         2     -0.00291560
         7         3         3         7         1         1      0.00795613
         7         3         3         7         1         2     -0.00291560
         7         3         5         1         1         1      0.00337423
         7         3         5         1         1         2      0.00783555
         7         3         5         1         2         1     -0.01744751
         7         3         5         1         2         2      0.00308758
         7         3         5         1         3         1      0.00874186
         7         3         5         1         3         2     -0.00600509
         7         3         6         2         1         1      0.00815888
         7         3         6         2         2         1     -0.00325340
         7         3         7         3         1         1      0.00815888
         7         3         7         3         2         1     -0.00325340
         6         4         1         6         1         1      0.00018649
         6         4         1         6         1         2      0.00015989
         6         4         1         6         2         1      0.00000850
         6         4         1         6         2         2      0.00010065
         6         4         2         5         1         1     -0.00033951
         6         4         2         5         1         2     -0.00017151
         6         4         2         5         1         3      0.00031584
         6         4         5         2         1         1      0.00011695
         6         4         5         2         2         1      0.00008165
         6         4         5         2         3         1     -0.00018811
         6         4         6         1         1         1      0.00049678
         6         4         6         1         1         2      0.00031981
         6         4         6         1         2         1     -0.00037928
         6         4         6         1         2         2     -0.00023436
         7         4         1         6         1         1      0.01763593
         7         4         1         6         1         2     -0.01352442
         7         4         1         6         2         1      0.00808825
         7         4         1         6         2         2     -0.00536519
         7         4         2         5         1         1     -0.00551997
         7         4         2         5         1         2     -0.00361036
         7         4         2         5         1         3      0.00435240
         7         4         5         2         1         1     -0.00618420
         7         4         5         2         2         1     -0.01094687
         7         4         5         2         3         1      0.01198203
         7         4         6         1         1         1      0.01079728
         7         4         6         1         1         2      0.00114668
         7         4         6         1         2         1     -0.00725368
         7         4         6         1         2         2     -0.00361039
         6         5         1         7         1         1      0.00018649
         6         5         1         7         1         2      0.00015989
         6         5         1         7         2         1      0.00000850
         6         5         1         7         2         2      0.00010065
         6         5         3         5         1         1     -0.00033951
         6         5         3         5         1         2     -0.00017151
         6         5         3         5         1         3      0.00031584
         6         5         5         3         1         1      0.00011695
         6         5         5         3         2         1      0.00008165
         6         5         5         3         3         1     -0.00018811
         6         5         7         1         1         1      0.00049678
         6         5         7         1         1         2      0.00031981
         6         5         7         1         2         1     -0.00037928
         6         5         7         1         2         2     -0.00023436
         7         5         1         7         1         1      0.01763593
         7         5         1         7         1         2     -0.01352442
         7         5         1         7         2         1      0.00808825
         7         5         1         7         2         2     -0.00536519
         7         5         3         5         1         1     -0.00551997
         7         5         3         5         1         2     -0.00361036
         7         5         3         5         1         3      0.00435240
         7         5         5         3         1         1     -0.00618420
         7         5         5         3         2         1     -0.01094687
         7         5         5         3         3         1      0.01198203
         7         5         7         1         1         1      0.01079728
         7         5         7         1         1         2      0.00114668
         7         5         7         1         2         1     -0.00725368
         7         5         7         1         2         2     -0.00361039


 RESULTS
 =======

  Reference energy                   -108.560379433159

  Correlated core orbitals:             1.1       1.5
  Orbital energies:                   -15.8177  -15.8171

  CCD core-core energy                 -0.000621197843
  CCD core-valence energy              -0.001453280686
  CCD valence correlation energy       -0.343814390300

  CCD singlet pair energy              -0.282755926657
  CCD triplet pair energy              -0.063132942172
  CCD correlation energy               -0.345888868829

 !CCD total energy                   -108.906268301988

 Timing summary (sec):

 STEP                 CPU(USER)    SYS     CPU(TOT)    WALL
 CCSD iterations         0.11      0.02      0.13      0.14

 Program statistics:

 Available memory in ccsd:                39999004
 Min. memory needed in ccsd:                  3850
 Max. memory used in ccsd:                    4069
 Max. memory used in cckext:                 37435 (25 integral passes)



 **********************************************************************************************************************************
 DATASETS  * FILE   NREC   LENGTH (MB)   RECORD NAMES
              1      20       30.01       500      700      610      900      950      970     1000      129      960     1100   
                                          VAR     GEOM    BASINP   SYMINP    ZMAT    AOBASIS   BASIS     P2S    ABASIS      S 
                                         1400     1410     1200     1210     1080     1600     1650     1300     1700     1380   
                                           T        V       H0       H01     AOSYM     SMH    MOLCAS    ERIS     OPER     JKOP   

              3       5       14.77       500      610      700     1000     2100   
                                          VAR    BASINP    GEOM     BASIS     RHF  

 PROGRAMS   *        TOTAL      CCSD       INT   RESTART
 CPU TIMES  *         0.54      0.18      0.15      0.03
 REAL TIME  *         0.71 SEC
 DISK USED  *        49.44 MB
 **********************************************************************************************************************************
 Molecular orbitals read from record     2100.3  Type=RHF/CANONICAL (state 1.1)
 Occupation numbers read from record     2100.3  Type=RHF/RHF (state 1.1)
 Orbital energies read from record       2100.3  Type=RHF/CANONICAL (state 1.1)
 Redundancy group numbers read from rec  2100.3  Type=RHF/RHF (state 1.1)

 CCSD/6-31G energy=   -108.906268301988

            CCSD
   -108.90626830
 **********************************************************************************************************************************
 Molpro calculation terminated
