
 Primary working directories    : /scr/yuriaoto/job.023502/molpro.sIijSYpR41
 Secondary working directories  : /scr/yuriaoto/job.023502/molpro.sIijSYpR41
 Wavefunction directory         : /scr/yuriaoto/job.023502/
 Main file repository           : /scr/yuriaoto/job.023502/molpro.sIijSYpR41/

 id        : yuriaoto

 Nodes             nprocs
 t-rex.ufabc.int.br    1

 Using customized tuning parameters: mindgm=8; mindgv=16; mindgc=1; mindgr=1; noblas=0; minvec=7
 default implementation of scratch files=df  


 Variables initialized (933), CPU time= 0.00 sec
 ***,
 memory,40,m
 gprint,orbital,basis,civector
 gthresh,thrprint=0,printci=0.0
 file,3,wfu.dat,old
 
 {ccsd,CC_NORM_MAX=10.0
 thresh,printci=0.0,ENERGY=1.0E-10,COEFF=1.0E-12
 print,ref=1
 wf,14,1,0;
 }
 
 Commands  initialized (760), CPU time= 0.01 sec, 617 directives.
 Default parameters read. Elapsed time= 0.04 sec

 Checking input...
 Passed
1


                                         ***  PROGRAM SYSTEM MOLPRO  ***
                                       Copyright, TTI GmbH Stuttgart, 2015
                                    Version 2019.2 linked Abr  7 2019 15:10:35


 **********************************************************************************************************************************
 LABEL *                                                                                 
  64 bit serial version                                                                  DATE: 02-Jun-20          TIME: 00:59:35  
 **********************************************************************************************************************************

 SHA1:             3a8a58c585c929645742fb5a1b7541a4ad1da699
 **********************************************************************************************************************************


 THRESHOLDS:

 ZERO    =  1.00D-12  ONEINT  =  1.00D-12  TWOINT  =  1.00D-11  PREFAC  =  1.00D-14  XXXXXX  =  1.00D-09  EORDER  =  1.00D-04
 ENERGY  =  0.00D+00  ETEST   =  0.00D+00  EDENS   =  0.00D+00  THRDEDEF=  1.00D-06  GRADIENT=  1.00D-02  STEP    =  1.00D-03
 ORBITAL =  1.00D-05  CIVEC   =  1.00D-05  COEFF   =  1.00D-04  PRINTCI =  0.00D+00  PUNCHCI =  9.90D+01  OPTGRAD =  3.00D-04
 OPTENERG=  1.00D-06  OPTSTEP =  3.00D-04  THRGRAD =  1.00D-10  COMPRESS=  1.00D-11  VARMIN  =  1.00D-07  VARMAX  =  1.00D-03
 THRDOUB =  0.00D+00  THRDIV  =  1.00D-05  THRRED  =  1.00D-07  THRPSP  =  1.00D+00  THRDC   =  1.00D-10  THRCS   =  1.00D-10
 THRNRM  =  1.00D-08  THREQ   =  0.00D+00  THRDE   =  1.00D+00  THRREF  =  1.00D-05  SPARFAC =  1.00D+00  THRDLP  =  1.00D-07
 THRDIA  =  1.00D-10  THRDLS  =  1.00D-07  THRGPS  =  0.00D+00  THRKEX  =  0.00D+00  THRDIS  =  2.00D-01  THRVAR  =  1.00D-10
 THRLOC  =  1.00D-06  THRGAP  =  1.00D-06  THRLOCT = -1.00D+00  THRGAPT = -1.00D+00  THRORB  =  1.00D-06  THRMLTP =  0.00D+00
 THRCPQCI=  1.00D-10  KEXTA   =  0.00D+00  THRCOARS=  0.00D+00  SYMTOL  =  1.00D-06  GRADTOL =  1.00D-06  THROVL  =  1.00D-08
 THRORTH =  1.00D-08  GRID    =  1.00D-06  GRIDMAX =  1.00D-03  DTMAX   =  0.00D+00  THROCCDE=  1.00D-01  THROCCDE=  1.00D-01
 THRPRINT=  0.00D+00


 Variable memory set to   40000000 words,  buffer space 



 Permanent file  3  wfu.dat  assigned.  Implementation=df    Size= 14.08 MB


 PROGRAM * RESTART 


 Reading variables from file 3

 _FNUC           =      0.00000000
 _BASIS          =    6-31G
 _NELEC          =     14.00000000
 _PROGRAM        =    RHF-SCF
 _DMX_SCF        =      0.00000000
 _DMY_SCF        =      0.00000000
 _DMZ_SCF        =      0.00000000
 _HOMO           =      1.20000000
 _EHOMO          =     -0.47733994
 _LUMO           =      1.60000000
 _ELUMO          =     -0.02720870
 _ENERGY         =   -108.56037943
 _ENERGY_METHOD  =    RHF
 _ENERGY_BASIS   =    6-31G
 _ENUC           =     16.33333333
 _EPS1(1:5)      =    -15.81771777    -1.22408989    -0.55476884     0.90356566     1.08163906
 _EPS2(1:2)      =     -0.47733994     0.86881343
 _EPS3(1:2)      =     -0.47733994     0.86881343
 _EPS5(1:5)      =    -15.81713369    -0.91208671     0.20403463     0.84931301     1.30241938
 _EPS6(1:2)      =     -0.02720870     0.95746624
 _EPS7(1:2)      =     -0.02720870     0.95746624
 _IPROC_MPP      =      0.00000000
 _IPROC_MPPX     =      0.00000000
 _ORBITAL        =   2100.30000000
 _STATUS         =      1.00000000
 _DATE           =    20-Mar-20
 _LASTORB        =    RHF
 _OUTPUT         =    /scr/yuriaoto/job.022805/RHF.xml
 _PGROUP         =    D2h 
 _TIME           =    18:50:32
 R               =      3.00000000

 Geometry written to block  1 of record 700


 **********************************************************************************************************************************
 DATASETS  * FILE   NREC   LENGTH (MB)   RECORD NAMES
              3       5       14.77       500      610      700     1000     2100   
                                          VAR    BASINP    GEOM     BASIS     RHF  

 PROGRAMS   *        TOTAL   RESTART
 CPU TIMES  *         0.12      0.02
 REAL TIME  *         0.14 SEC
 DISK USED  *        26.84 MB
 **********************************************************************************************************************************


 Recomputing integrals since basis changed


 Using spherical harmonics

 Library entry N      S 6-31G                selected for orbital group  1
 Library entry N      P 6-31G                selected for orbital group  1


 PROGRAM * SEWARD (Integral evaluation for generally contracted gaussian basis sets)     Author: Roland Lindh, 1990

 Geometry written to block  1 of record 700

 Orientation using atomic masses  
 Molecule type: Linear
 User-specified symmetry elements: X,Y,Z
 Symmetry elements: X,Y,Z
 Rotational constants:      28.6329822     28.6329822      0.0000000 GHz  (calculated with average atomic masses)

 Point group  D2h 



 ATOMIC COORDINATES

 NR  ATOM    CHARGE       X              Y              Z

   1  N1      7.00    0.000000000    0.000000000   -1.500000000
   2  N2      7.00    0.000000000    0.000000000    1.500000000

 Bond lengths in Bohr (Angstrom)

 1-2  3.000000000
     ( 1.587531633)


 BASIS DATA

   Nr Sym  Nuc  Type         Exponents   Contraction coefficients

    1.1 Ag    1  1s        4173.511500     0.001835
              2  1s         627.457910     0.013995
                            142.902090     0.068587
                             40.234329     0.232241
                             12.820213     0.469070
                              4.390437     0.360455
    2.1 Ag    1  1s          11.626362    -0.114961
              2  1s           2.716280    -0.169117
                              0.772218     1.145852
    3.1 Ag    1  1s           0.212032     1.000000
              2  1s    
    4.1 Ag    1  2pz         11.626362     0.067580
              2 -2pz          2.716280     0.323907
                              0.772218     0.740895
    5.1 Ag    1  2pz          0.212032     1.000000
              2 -2pz   
    1.2 B3u   1  2px         11.626362     0.067580
              2  2px          2.716280     0.323907
                              0.772218     0.740895
    2.2 B3u   1  2px          0.212032     1.000000
              2  2px   
    1.3 B2u   1  2py         11.626362     0.067580
              2  2py          2.716280     0.323907
                              0.772218     0.740895
    2.3 B2u   1  2py          0.212032     1.000000
              2  2py   
    1.5 B1u   1  1s        4173.511500     0.001835
              2 -1s         627.457910     0.013995
                            142.902090     0.068587
                             40.234329     0.232241
                             12.820213     0.469070
                              4.390437     0.360455
    2.5 B1u   1  1s          11.626362    -0.114961
              2 -1s           2.716280    -0.169117
                              0.772218     1.145852
    3.5 B1u   1  1s           0.212032     1.000000
              2 -1s    
    4.5 B1u   1  2pz         11.626362     0.067580
              2  2pz          2.716280     0.323907
                              0.772218     0.740895
    5.5 B1u   1  2pz          0.212032     1.000000
              2  2pz   
    1.6 B2g   1  2px         11.626362     0.067580
              2 -2px          2.716280     0.323907
                              0.772218     0.740895
    2.6 B2g   1  2px          0.212032     1.000000
              2 -2px   
    1.7 B3g   1  2py         11.626362     0.067580
              2 -2py          2.716280     0.323907
                              0.772218     0.740895
    2.7 B3g   1  2py          0.212032     1.000000
              2 -2py   

 NUCLEAR CHARGE:                   14
 NUMBER OF PRIMITIVE AOS:          44
 NUMBER OF SYMMETRY AOS:           44
 NUMBER OF CONTRACTIONS:           18   (    5Ag  +    2B3u +    2B2u +    0B1g +    5B1u +    2B2g +    2B3g +    0Au  )
 NUMBER OF CORE ORBITALS:           2   (    1Ag  +    0B3u +    0B2u +    0B1g +    1B1u +    0B2g +    0B3g +    0Au  )
 NUMBER OF VALENCE ORBITALS:        8   (    2Ag  +    1B3u +    1B2u +    0B1g +    2B1u +    1B2g +    1B3g +    0Au  )


 NUCLEAR REPULSION ENERGY   16.33333333

 Eigenvalues of metric

         1 0.238E+00 0.415E+00 0.926E+00 0.155E+01 0.276E+01
         2 0.544E+00 0.186E+01
         3 0.544E+00 0.186E+01
         5 0.420E-01 0.342E+00 0.806E+00 0.100E+01 0.192E+01
         6 0.352E+00 0.124E+01
         7 0.352E+00 0.124E+01


 Contracted 2-electron integrals neglected if value below      1.0D-11
 AO integral compression algorithm  1   Integral accuracy      1.0D-11

     0.262 MB (compressed) written to integral file (100.0%)


 NUMBER OF SORTED TWO-ELECTRON INTEGRALS:       2829.     BUFFER LENGTH:  32768
 NUMBER OF SEGMENTS:   1  SEGMENT LENGTH:       2829      RECORD LENGTH: 524288

 Memory used in sort:       0.56 MW

 SORT1 READ        8184. AND WROTE        2829. INTEGRALS IN      1 RECORDS. CPU TIME:     0.00 SEC, REAL TIME:     0.01 SEC
 SORT2 READ        2829. AND WROTE        2829. INTEGRALS IN      1 RECORDS. CPU TIME:     0.01 SEC, REAL TIME:     0.01 SEC

 FILE SIZES:   FILE 1:    30.2 MBYTE,  FILE 4:     4.2 MBYTE,   TOTAL:     34.4 MBYTE

 OPERATOR DM      FOR CENTER  0  COORDINATES:    0.000000    0.000000    0.000000


 **********************************************************************************************************************************
 DATASETS  * FILE   NREC   LENGTH (MB)   RECORD NAMES
              1      19       29.97       500      700      610      900      950      970     1000      129      960     1100   
                                          VAR     GEOM    BASINP   SYMINP    ZMAT    AOBASIS   BASIS     P2S    ABASIS      S 
                                         1400     1410     1200     1210     1080     1600     1650     1300     1700   
                                           T        V       H0       H01     AOSYM     SMH    MOLCAS    ERIS     OPER   

              3       5       14.77       500      610      700     1000     2100   
                                          VAR    BASINP    GEOM     BASIS     RHF  

 PROGRAMS   *        TOTAL       INT   RESTART
 CPU TIMES  *         0.26      0.14      0.02
 REAL TIME  *         0.44 SEC
 DISK USED  *        49.44 MB
 **********************************************************************************************************************************


 PROGRAM * CCSD (Closed-shell coupled cluster)     Authors: C. Hampel, H.-J. Werner, 1991, M. Deegan, P.J. Knowles, 1992


 Input parameters for THRESH:

 ENERGY   =    1.00D-10
 COEFF    =    1.00D-12
 PRINTCI  =    0.000000
 THRPRINT =    0.000000

 Convergence thresholds:  THRVAR = 1.00D-24  THRDEN = 1.00D-10

 Number of core orbitals:           2 (   1   0   0   0   1   0   0 )
 Number of closed-shell orbitals:   5 (   2   1   1   0   1   0   0 )
 Number of external orbitals:      11 (   2   1   1   0   3   2   2 )

 Molecular orbitals read from record     2100.3  Type=RHF/CANONICAL (state 1.1)

 Number of N-1 electron functions:               5
 Number of N-2 electron functions:              15
 Number of singly external CSFs:                 9
 Number of doubly external CSFs:               250
 Total number of CSFs:                         260

 Length of J-op  integral file:               0.00 MB
 Length of K-op  integral file:               0.04 MB
 Length of 3-ext integral record:             0.00 MB

 Integral transformation finished. Total CPU:   0.00 sec, npass=  1  Memory used:   0.07 MW

 Reference energy:                   -108.56037943

 MP2 singlet pair energy:              -0.25607588
 MP2 triplet pair energy:              -0.20952665
 MP2 correlation energy:               -0.46560253
 MP2 total energy:                   -109.02598196

 SCS-MP2 correlation energy:           -0.43766319   (PS=  1.200000  PT=  0.333333)
 SCS-MP2 total energy:               -108.99804263

 ITER.      SQ.NORM     CORR.ENERGY   TOTAL ENERGY   ENERGY CHANGE        DEN1      VAR(S)    VAR(P)  DIIS     TIME  TIME/IT
   1      1.13898918    -0.39271056  -108.95308999     0.07289198     0.19955920  0.19D-01  0.90D-01  1  1     0.01     0.01
   2      1.19485392    -0.34478238  -108.90516181     0.04792817    -0.06347568  0.37D-03  0.34D-02  2  2     0.02     0.01
   3      1.21994676    -0.34452487  -108.90490430     0.00025752    -0.00644425  0.25D-04  0.11D-02  3  3     0.02     0.00
   4      1.26014899    -0.35207648  -108.91245591    -0.00755161    -0.01036605  0.41D-04  0.35D-03  4  4     0.02     0.00
   5      1.29595781    -0.35332184  -108.91370128    -0.00124536    -0.00569020  0.21D-05  0.35D-04  5  5     0.03     0.00
   6      1.30399369    -0.35312832  -108.91350775     0.00019353    -0.00086406  0.40D-06  0.45D-05  6  6     0.03     0.00
   7      1.30707628    -0.35335218  -108.91373162    -0.00022387    -0.00046235  0.17D-07  0.48D-06  6  1     0.03     0.00
   8      1.30699456    -0.35335790  -108.91373733    -0.00000572     0.00002671  0.80D-08  0.70D-07  6  2     0.04     0.00
   9      1.30718630    -0.35335362  -108.91373305     0.00000428    -0.00002888  0.79D-09  0.55D-08  6  5     0.04     0.00
  10      1.30729171    -0.35336224  -108.91374167    -0.00000862    -0.00002147  0.62D-10  0.76D-09  6  3     0.04     0.00
  11      1.30724891    -0.35335988  -108.91373931     0.00000236     0.00000961  0.11D-10  0.11D-09  6  4     0.05     0.00
  12      1.30724911    -0.35335988  -108.91373932    -0.00000001    -0.00000087  0.22D-11  0.13D-10  6  6     0.05     0.00
  13      1.30724290    -0.35335971  -108.91373914     0.00000018     0.00000125  0.13D-12  0.19D-11  6  2     0.05     0.00
  14      1.30724334    -0.35335969  -108.91373913     0.00000001    -0.00000007  0.29D-13  0.23D-12  6  1     0.05     0.00
  15      1.30724373    -0.35335971  -108.91373914    -0.00000001    -0.00000005  0.24D-14  0.25D-13  6  5     0.06     0.00
  16      1.30724393    -0.35335971  -108.91373915    -0.00000001    -0.00000004  0.35D-15  0.73D-14  6  3     0.06     0.00
  17      1.30724382    -0.35335971  -108.91373914     0.00000000     0.00000002  0.68D-16  0.62D-15  6  4     0.06     0.00
  18      1.30724377    -0.35335971  -108.91373914     0.00000000     0.00000001  0.44D-17  0.27D-16  6  6     0.07     0.00
  19      1.30724377    -0.35335971  -108.91373914    -0.00000000    -0.00000000  0.57D-18  0.56D-17  6  2     0.07     0.00
  20      1.30724377    -0.35335971  -108.91373914     0.00000000     0.00000000  0.92D-19  0.64D-18  6  1     0.07     0.00
  21      1.30724377    -0.35335971  -108.91373914    -0.00000000    -0.00000000  0.31D-20  0.68D-19  6  5     0.08     0.00
  22      1.30724377    -0.35335971  -108.91373914     0.00000000     0.00000000  0.11D-20  0.66D-20  6  3     0.08     0.00
  23      1.30724377    -0.35335971  -108.91373914    -0.00000000    -0.00000000  0.89D-22  0.17D-20  6  4     0.08     0.00
  24      1.30724377    -0.35335971  -108.91373914     0.00000000     0.00000000  0.24D-22  0.23D-21  6  2     0.08     0.00
  25      1.30724377    -0.35335971  -108.91373914    -0.00000000    -0.00000000  0.18D-23  0.12D-22  6  6     0.09     0.00
  26      1.30724377    -0.35335971  -108.91373914    -0.00000000    -0.00000000  0.56D-25  0.34D-23  6  1     0.09     0.00
  27      1.30724377    -0.35335971  -108.91373914     0.00000000     0.00000000  0.70D-25  0.42D-24  6  5     0.09     0.00

 Norm of t1 vector:      0.11688560      S-energy:    -0.00000000      T1 diagnostic:  0.02613642
                                                                       D1 diagnostic:  0.05296142

 Singles amplitudes (print threshold =  0.000E+00):

         I         SYM. A    A   T(IA)

         1         1         1      0.00847970
         1         1         2     -0.00314604
         2         1         1     -0.00288041
         2         1         2     -0.02369371
         3         2         1      0.05296142
         4         3         1      0.05296142
         5         5         1      0.02171532
         5         5         2     -0.00986184
         5         5         3      0.00099817

 Doubles amplitudes (print threshold =  0.000E+00):

         I         J         SYM. A    SYM. B    A         B      T(IJ, AB)

         1         1         1         1         1         1     -0.00491713
         1         1         1         1         1         2     -0.00422049
         1         1         1         1         2         1     -0.00422049
         1         1         1         1         2         2     -0.01045633
         1         1         2         2         1         1     -0.00588878
         1         1         3         3         1         1     -0.00588878
         1         1         5         5         1         1     -0.03111749
         1         1         5         5         1         2      0.00765980
         1         1         5         5         1         3      0.01032792
         1         1         5         5         2         1      0.00765980
         1         1         5         5         2         2     -0.00435326
         1         1         5         5         2         3     -0.00190416
         1         1         5         5         3         1      0.01032792
         1         1         5         5         3         2     -0.00190416
         1         1         5         5         3         3     -0.00694947
         1         1         6         6         1         1     -0.01504136
         1         1         6         6         1         2      0.00758941
         1         1         6         6         2         1      0.00758941
         1         1         6         6         2         2     -0.00495947
         1         1         7         7         1         1     -0.01504136
         1         1         7         7         1         2      0.00758941
         1         1         7         7         2         1      0.00758941
         1         1         7         7         2         2     -0.00495947
         2         1         1         1         1         1      0.01007368
         2         1         1         1         1         2      0.00359890
         2         1         1         1         2         1     -0.00426707
         2         1         1         1         2         2     -0.00738868
         2         1         2         2         1         1      0.00218696
         2         1         3         3         1         1      0.00218696
         2         1         5         5         1         1     -0.03068673
         2         1         5         5         1         2      0.00590152
         2         1         5         5         1         3      0.01191698
         2         1         5         5         2         1      0.01412446
         2         1         5         5         2         2      0.00314885
         2         1         5         5         2         3     -0.00935119
         2         1         5         5         3         1      0.01078816
         2         1         5         5         3         2     -0.00518669
         2         1         5         5         3         3     -0.00099892
         2         1         6         6         1         1      0.00713273
         2         1         6         6         1         2     -0.00111792
         2         1         6         6         2         1      0.00074843
         2         1         6         6         2         2      0.00091783
         2         1         7         7         1         1      0.00713273
         2         1         7         7         1         2     -0.00111792
         2         1         7         7         2         1      0.00074843
         2         1         7         7         2         2      0.00091783
         2         2         1         1         1         1     -0.02158508
         2         2         1         1         1         2      0.00715387
         2         2         1         1         2         1      0.00715387
         2         2         1         1         2         2     -0.00500037
         2         2         2         2         1         1     -0.00244736
         2         2         3         3         1         1     -0.00244736
         2         2         5         5         1         1     -0.09090317
         2         2         5         5         1         2      0.03088871
         2         2         5         5         1         3     -0.00216845
         2         2         5         5         2         1      0.03088871
         2         2         5         5         2         2     -0.02904023
         2         2         5         5         2         3      0.00357511
         2         2         5         5         3         1     -0.00216845
         2         2         5         5         3         2      0.00357511
         2         2         5         5         3         3     -0.00347343
         2         2         6         6         1         1     -0.02399708
         2         2         6         6         1         2      0.00297545
         2         2         6         6         2         1      0.00297545
         2         2         6         6         2         2     -0.00223012
         2         2         7         7         1         1     -0.02399708
         2         2         7         7         1         2      0.00297545
         2         2         7         7         2         1      0.00297545
         2         2         7         7         2         2     -0.00223012
         3         3         1         1         1         1     -0.00468620
         3         3         1         1         1         2     -0.00355769
         3         3         1         1         2         1     -0.00355769
         3         3         1         1         2         2     -0.00631956
         3         3         2         2         1         1     -0.01813508
         3         3         3         3         1         1     -0.00119918
         3         3         5         5         1         1     -0.01891004
         3         3         5         5         1         2      0.00189790
         3         3         5         5         1         3      0.00146950
         3         3         5         5         2         1      0.00189790
         3         3         5         5         2         2     -0.00189680
         3         3         5         5         2         3      0.00109364
         3         3         5         5         3         1      0.00146950
         3         3         5         5         3         2      0.00109364
         3         3         5         5         3         3     -0.00347924
         3         3         6         6         1         1     -0.26199234
         3         3         6         6         1         2      0.03708161
         3         3         6         6         2         1      0.03708161
         3         3         6         6         2         2     -0.01390379
         3         3         7         7         1         1     -0.02488546
         3         3         7         7         1         2      0.00300162
         3         3         7         7         2         1      0.00300162
         3         3         7         7         2         2     -0.00087822
         4         4         1         1         1         1     -0.00468620
         4         4         1         1         1         2     -0.00355769
         4         4         1         1         2         1     -0.00355769
         4         4         1         1         2         2     -0.00631956
         4         4         2         2         1         1     -0.00119918
         4         4         3         3         1         1     -0.01813508
         4         4         5         5         1         1     -0.01891004
         4         4         5         5         1         2      0.00189790
         4         4         5         5         1         3      0.00146950
         4         4         5         5         2         1      0.00189790
         4         4         5         5         2         2     -0.00189680
         4         4         5         5         2         3      0.00109364
         4         4         5         5         3         1      0.00146950
         4         4         5         5         3         2      0.00109364
         4         4         5         5         3         3     -0.00347924
         4         4         6         6         1         1     -0.02488546
         4         4         6         6         1         2      0.00300162
         4         4         6         6         2         1      0.00300162
         4         4         6         6         2         2     -0.00087822
         4         4         7         7         1         1     -0.26199234
         4         4         7         7         1         2      0.03708161
         4         4         7         7         2         1      0.03708161
         4         4         7         7         2         2     -0.01390379
         5         5         1         1         1         1     -0.01512102
         5         5         1         1         1         2     -0.00195276
         5         5         1         1         2         1     -0.00195276
         5         5         1         1         2         2     -0.00295610
         5         5         2         2         1         1     -0.00669524
         5         5         3         3         1         1     -0.00669524
         5         5         5         5         1         1     -0.03007301
         5         5         5         5         1         2      0.00665403
         5         5         5         5         1         3      0.00166396
         5         5         5         5         2         1      0.00665403
         5         5         5         5         2         2     -0.01288030
         5         5         5         5         2         3      0.00578934
         5         5         5         5         3         1      0.00166396
         5         5         5         5         3         2      0.00578934
         5         5         5         5         3         3     -0.00689975
         5         5         6         6         1         1     -0.04810122
         5         5         6         6         1         2      0.01138249
         5         5         6         6         2         1      0.01138249
         5         5         6         6         2         2     -0.00614269
         5         5         7         7         1         1     -0.04810122
         5         5         7         7         1         2      0.01138249
         5         5         7         7         2         1      0.01138249
         5         5         7         7         2         2     -0.00614269
         3         1         1         2         1         1      0.00569805
         3         1         1         2         2         1      0.00502085
         3         1         2         1         1         1      0.01117193
         3         1         2         1         1         2      0.01181842
         3         1         5         6         1         1     -0.03156880
         3         1         5         6         1         2      0.00869889
         3         1         5         6         2         1     -0.00189426
         3         1         5         6         2         2      0.00177345
         3         1         5         6         3         1      0.00290680
         3         1         5         6         3         2     -0.00403454
         3         1         6         5         1         1     -0.03169669
         3         1         6         5         1         2     -0.00062374
         3         1         6         5         1         3      0.00744349
         3         1         6         5         2         1      0.01500426
         3         1         6         5         2         2      0.00117538
         3         1         6         5         2         3     -0.00887899
         3         2         1         2         1         1     -0.00412141
         3         2         1         2         2         1     -0.00002176
         3         2         2         1         1         1     -0.01522039
         3         2         2         1         1         2      0.00713258
         3         2         5         6         1         1     -0.03551206
         3         2         5         6         1         2      0.00590766
         3         2         5         6         2         1      0.01606544
         3         2         5         6         2         2     -0.00515723
         3         2         5         6         3         1      0.00218806
         3         2         5         6         3         2      0.00193581
         3         2         6         5         1         1     -0.06929085
         3         2         6         5         1         2      0.02639847
         3         2         6         5         1         3      0.00035081
         3         2         6         5         2         1      0.01614251
         3         2         6         5         2         2     -0.01571818
         3         2         6         5         2         3      0.00151680
         4         1         1         3         1         1      0.00569805
         4         1         1         3         2         1      0.00502085
         4         1         3         1         1         1      0.01117193
         4         1         3         1         1         2      0.01181842
         4         1         5         7         1         1     -0.03156880
         4         1         5         7         1         2      0.00869889
         4         1         5         7         2         1     -0.00189426
         4         1         5         7         2         2      0.00177345
         4         1         5         7         3         1      0.00290680
         4         1         5         7         3         2     -0.00403454
         4         1         7         5         1         1     -0.03169669
         4         1         7         5         1         2     -0.00062374
         4         1         7         5         1         3      0.00744349
         4         1         7         5         2         1      0.01500426
         4         1         7         5         2         2      0.00117538
         4         1         7         5         2         3     -0.00887899
         4         2         1         3         1         1     -0.00412141
         4         2         1         3         2         1     -0.00002176
         4         2         3         1         1         1     -0.01522039
         4         2         3         1         1         2      0.00713258
         4         2         5         7         1         1     -0.03551206
         4         2         5         7         1         2      0.00590766
         4         2         5         7         2         1      0.01606544
         4         2         5         7         2         2     -0.00515723
         4         2         5         7         3         1      0.00218806
         4         2         5         7         3         2      0.00193581
         4         2         7         5         1         1     -0.06929085
         4         2         7         5         1         2      0.02639847
         4         2         7         5         1         3      0.00035081
         4         2         7         5         2         1      0.01614251
         4         2         7         5         2         2     -0.01571818
         4         2         7         5         2         3      0.00151680
         4         3         2         3         1         1     -0.00075273
         4         3         3         2         1         1     -0.01618317
         4         3         6         7         1         1     -0.11515636
         4         3         6         7         1         2      0.01350463
         4         3         6         7         2         1      0.01350463
         4         3         6         7         2         2     -0.00179801
         4         3         7         6         1         1     -0.12195052
         4         3         7         6         1         2      0.02057536
         4         3         7         6         2         1      0.02057536
         4         3         7         6         2         2     -0.01122757
         5         1         1         5         1         1      0.00483265
         5         1         1         5         1         2      0.00436855
         5         1         1         5         1         3     -0.00632332
         5         1         1         5         2         1      0.00945702
         5         1         1         5         2         2     -0.00265320
         5         1         1         5         2         3     -0.00453990
         5         1         2         6         1         1     -0.01210025
         5         1         2         6         1         2      0.00625345
         5         1         3         7         1         1     -0.01210025
         5         1         3         7         1         2      0.00625345
         5         1         5         1         1         1      0.00203783
         5         1         5         1         1         2      0.00874002
         5         1         5         1         2         1      0.00691757
         5         1         5         1         2         2      0.00034252
         5         1         5         1         3         1     -0.00583814
         5         1         5         1         3         2     -0.00718627
         5         1         6         2         1         1     -0.00958698
         5         1         6         2         2         1      0.00611733
         5         1         7         3         1         1     -0.00958698
         5         1         7         3         2         1      0.00611733
         5         2         1         5         1         1      0.01540292
         5         2         1         5         1         2     -0.02022219
         5         2         1         5         1         3      0.00406690
         5         2         1         5         2         1      0.00822266
         5         2         1         5         2         2     -0.00308074
         5         2         1         5         2         3     -0.00221308
         5         2         2         6         1         1      0.00688997
         5         2         2         6         1         2     -0.00272809
         5         2         3         7         1         1      0.00688997
         5         2         3         7         1         2     -0.00272809
         5         2         5         1         1         1      0.00399737
         5         2         5         1         1         2      0.00895681
         5         2         5         1         2         1     -0.01746563
         5         2         5         1         2         2      0.00246424
         5         2         5         1         3         1      0.00885542
         5         2         5         1         3         2     -0.00596653
         5         2         6         2         1         1      0.00680841
         5         2         6         2         2         1     -0.00303044
         5         2         7         3         1         1      0.00680841
         5         2         7         3         2         1     -0.00303044
         5         3         1         6         1         1      0.01890647
         5         3         1         6         1         2     -0.01406054
         5         3         1         6         2         1      0.00945752
         5         3         1         6         2         2     -0.00608413
         5         3         2         5         1         1     -0.00505234
         5         3         2         5         1         2     -0.00364843
         5         3         2         5         1         3      0.00460823
         5         3         5         2         1         1     -0.00604531
         5         3         5         2         2         1     -0.01064706
         5         3         5         2         3         1      0.01210328
         5         3         6         1         1         1      0.01311836
         5         3         6         1         1         2      0.00267935
         5         3         6         1         2         1     -0.00765041
         5         3         6         1         2         2     -0.00394121
         5         4         1         7         1         1      0.01890647
         5         4         1         7         1         2     -0.01406054
         5         4         1         7         2         1      0.00945752
         5         4         1         7         2         2     -0.00608413
         5         4         3         5         1         1     -0.00505234
         5         4         3         5         1         2     -0.00364843
         5         4         3         5         1         3      0.00460823
         5         4         5         3         1         1     -0.00604531
         5         4         5         3         2         1     -0.01064706
         5         4         5         3         3         1      0.01210328
         5         4         7         1         1         1      0.01311836
         5         4         7         1         1         2      0.00267935
         5         4         7         1         2         1     -0.00765041
         5         4         7         1         2         2     -0.00394121


 RESULTS
 =======

  Reference energy                   -108.560379433159
  CCSD singlet pair energy             -0.292156323170
  CCSD triplet pair energy             -0.061203381600
  CCSD correlation energy              -0.353359707389

 !CCSD total energy                  -108.913739140547

 Timing summary (sec):

 STEP                 CPU(USER)    SYS     CPU(TOT)    WALL
 CCSD iterations         0.09      0.02      0.11      0.11

 Program statistics:

 Available memory in ccsd:                39999100
 Min. memory needed in ccsd:                  2282
 Max. memory used in ccsd:                    2323
 Max. memory used in cckext:                 35469 (27 integral passes)



 **********************************************************************************************************************************
 DATASETS  * FILE   NREC   LENGTH (MB)   RECORD NAMES
              1      20       29.99       500      700      610      900      950      970     1000      129      960     1100   
                                          VAR     GEOM    BASINP   SYMINP    ZMAT    AOBASIS   BASIS     P2S    ABASIS      S 
                                         1400     1410     1200     1210     1080     1600     1650     1300     1700     1380   
                                           T        V       H0       H01     AOSYM     SMH    MOLCAS    ERIS     OPER     JKOP   

              3       5       14.77       500      610      700     1000     2100   
                                          VAR    BASINP    GEOM     BASIS     RHF  

 PROGRAMS   *        TOTAL      CCSD       INT   RESTART
 CPU TIMES  *         0.44      0.17      0.14      0.02
 REAL TIME  *         0.64 SEC
 DISK USED  *        49.44 MB
 **********************************************************************************************************************************
 Molecular orbitals read from record     2100.3  Type=RHF/CANONICAL (state 1.1)
 Occupation numbers read from record     2100.3  Type=RHF/RHF (state 1.1)
 Orbital energies read from record       2100.3  Type=RHF/CANONICAL (state 1.1)
 Redundancy group numbers read from rec  2100.3  Type=RHF/RHF (state 1.1)

 CCSD/6-31G energy=   -108.913739140547

            CCSD
   -108.91373914
 **********************************************************************************************************************************
 Molpro calculation terminated
