
 Primary working directories    : /scr/yuriaoto/job.023504/molpro.1qQANxs8Gg
 Secondary working directories  : /scr/yuriaoto/job.023504/molpro.1qQANxs8Gg
 Wavefunction directory         : /scr/yuriaoto/job.023504/
 Main file repository           : /scr/yuriaoto/job.023504/molpro.1qQANxs8Gg/

 id        : yuriaoto

 Nodes             nprocs
 t-rex.ufabc.int.br    1

 Using customized tuning parameters: mindgm=8; mindgv=16; mindgc=1; mindgr=1; noblas=0; minvec=7
 default implementation of scratch files=df  


 Variables initialized (933), CPU time= 0.01 sec
 ***,
 memory,40,m
 gprint,orbital,basis,civector
 gthresh,thrprint=0,printci=0.0
 file,3,wfu.dat,old
 
 {cisd,CC_NORM_MAX=10.0
 thresh,printci=0.0,ENERGY=1.0E-10,COEFF=1.0E-12
 print,ref=1
 wf,14,1,0;
 }
 
 Commands  initialized (760), CPU time= 0.01 sec, 617 directives.
 Default parameters read. Elapsed time= 0.04 sec

 Checking input...
 Passed
1


                                         ***  PROGRAM SYSTEM MOLPRO  ***
                                       Copyright, TTI GmbH Stuttgart, 2015
                                    Version 2019.2 linked Abr  7 2019 15:10:35


 **********************************************************************************************************************************
 LABEL *                                                                                 
  64 bit serial version                                                                  DATE: 02-Jun-20          TIME: 00:59:40  
 **********************************************************************************************************************************

 SHA1:             3a8a58c585c929645742fb5a1b7541a4ad1da699
 **********************************************************************************************************************************


 THRESHOLDS:

 ZERO    =  1.00D-12  ONEINT  =  1.00D-12  TWOINT  =  1.00D-11  PREFAC  =  1.00D-14  XXXXXX  =  1.00D-09  EORDER  =  1.00D-04
 ENERGY  =  0.00D+00  ETEST   =  0.00D+00  EDENS   =  0.00D+00  THRDEDEF=  1.00D-06  GRADIENT=  1.00D-02  STEP    =  1.00D-03
 ORBITAL =  1.00D-05  CIVEC   =  1.00D-05  COEFF   =  1.00D-04  PRINTCI =  0.00D+00  PUNCHCI =  9.90D+01  OPTGRAD =  3.00D-04
 OPTENERG=  1.00D-06  OPTSTEP =  3.00D-04  THRGRAD =  1.00D-10  COMPRESS=  1.00D-11  VARMIN  =  1.00D-07  VARMAX  =  1.00D-03
 THRDOUB =  0.00D+00  THRDIV  =  1.00D-05  THRRED  =  1.00D-07  THRPSP  =  1.00D+00  THRDC   =  1.00D-10  THRCS   =  1.00D-10
 THRNRM  =  1.00D-08  THREQ   =  0.00D+00  THRDE   =  1.00D+00  THRREF  =  1.00D-05  SPARFAC =  1.00D+00  THRDLP  =  1.00D-07
 THRDIA  =  1.00D-10  THRDLS  =  1.00D-07  THRGPS  =  0.00D+00  THRKEX  =  0.00D+00  THRDIS  =  2.00D-01  THRVAR  =  1.00D-10
 THRLOC  =  1.00D-06  THRGAP  =  1.00D-06  THRLOCT = -1.00D+00  THRGAPT = -1.00D+00  THRORB  =  1.00D-06  THRMLTP =  0.00D+00
 THRCPQCI=  1.00D-10  KEXTA   =  0.00D+00  THRCOARS=  0.00D+00  SYMTOL  =  1.00D-06  GRADTOL =  1.00D-06  THROVL  =  1.00D-08
 THRORTH =  1.00D-08  GRID    =  1.00D-06  GRIDMAX =  1.00D-03  DTMAX   =  0.00D+00  THROCCDE=  1.00D-01  THROCCDE=  1.00D-01
 THRPRINT=  0.00D+00


 Variable memory set to   40000000 words,  buffer space 



 Permanent file  3  wfu.dat  assigned.  Implementation=df    Size= 14.08 MB


 PROGRAM * RESTART 


 Reading variables from file 3

 _FNUC           =      0.00000000
 _BASIS          =    6-31G
 _NELEC          =     14.00000000
 _PROGRAM        =    RHF-SCF
 _DMX_SCF        =      0.00000000
 _DMY_SCF        =      0.00000000
 _DMZ_SCF        =      0.00000000
 _HOMO           =      1.20000000
 _EHOMO          =     -0.47733994
 _LUMO           =      1.60000000
 _ELUMO          =     -0.02720870
 _ENERGY         =   -108.56037943
 _ENERGY_METHOD  =    RHF
 _ENERGY_BASIS   =    6-31G
 _ENUC           =     16.33333333
 _EPS1(1:5)      =    -15.81771777    -1.22408989    -0.55476884     0.90356566     1.08163906
 _EPS2(1:2)      =     -0.47733994     0.86881343
 _EPS3(1:2)      =     -0.47733994     0.86881343
 _EPS5(1:5)      =    -15.81713369    -0.91208671     0.20403463     0.84931301     1.30241938
 _EPS6(1:2)      =     -0.02720870     0.95746624
 _EPS7(1:2)      =     -0.02720870     0.95746624
 _IPROC_MPP      =      0.00000000
 _IPROC_MPPX     =      0.00000000
 _ORBITAL        =   2100.30000000
 _STATUS         =      1.00000000
 _DATE           =    20-Mar-20
 _LASTORB        =    RHF
 _OUTPUT         =    /scr/yuriaoto/job.022805/RHF.xml
 _PGROUP         =    D2h 
 _TIME           =    18:50:32
 R               =      3.00000000

 Geometry written to block  1 of record 700


 **********************************************************************************************************************************
 DATASETS  * FILE   NREC   LENGTH (MB)   RECORD NAMES
              3       5       14.77       500      610      700     1000     2100   
                                          VAR    BASINP    GEOM     BASIS     RHF  

 PROGRAMS   *        TOTAL   RESTART
 CPU TIMES  *         0.11      0.01
 REAL TIME  *         0.14 SEC
 DISK USED  *        26.84 MB
 **********************************************************************************************************************************


 Recomputing integrals since basis changed


 Using spherical harmonics

 Library entry N      S 6-31G                selected for orbital group  1
 Library entry N      P 6-31G                selected for orbital group  1


 PROGRAM * SEWARD (Integral evaluation for generally contracted gaussian basis sets)     Author: Roland Lindh, 1990

 Geometry written to block  1 of record 700

 Orientation using atomic masses  
 Molecule type: Linear
 User-specified symmetry elements: X,Y,Z
 Symmetry elements: X,Y,Z
 Rotational constants:      28.6329822     28.6329822      0.0000000 GHz  (calculated with average atomic masses)

 Point group  D2h 



 ATOMIC COORDINATES

 NR  ATOM    CHARGE       X              Y              Z

   1  N1      7.00    0.000000000    0.000000000   -1.500000000
   2  N2      7.00    0.000000000    0.000000000    1.500000000

 Bond lengths in Bohr (Angstrom)

 1-2  3.000000000
     ( 1.587531633)


 BASIS DATA

   Nr Sym  Nuc  Type         Exponents   Contraction coefficients

    1.1 Ag    1  1s        4173.511500     0.001835
              2  1s         627.457910     0.013995
                            142.902090     0.068587
                             40.234329     0.232241
                             12.820213     0.469070
                              4.390437     0.360455
    2.1 Ag    1  1s          11.626362    -0.114961
              2  1s           2.716280    -0.169117
                              0.772218     1.145852
    3.1 Ag    1  1s           0.212032     1.000000
              2  1s    
    4.1 Ag    1  2pz         11.626362     0.067580
              2 -2pz          2.716280     0.323907
                              0.772218     0.740895
    5.1 Ag    1  2pz          0.212032     1.000000
              2 -2pz   
    1.2 B3u   1  2px         11.626362     0.067580
              2  2px          2.716280     0.323907
                              0.772218     0.740895
    2.2 B3u   1  2px          0.212032     1.000000
              2  2px   
    1.3 B2u   1  2py         11.626362     0.067580
              2  2py          2.716280     0.323907
                              0.772218     0.740895
    2.3 B2u   1  2py          0.212032     1.000000
              2  2py   
    1.5 B1u   1  1s        4173.511500     0.001835
              2 -1s         627.457910     0.013995
                            142.902090     0.068587
                             40.234329     0.232241
                             12.820213     0.469070
                              4.390437     0.360455
    2.5 B1u   1  1s          11.626362    -0.114961
              2 -1s           2.716280    -0.169117
                              0.772218     1.145852
    3.5 B1u   1  1s           0.212032     1.000000
              2 -1s    
    4.5 B1u   1  2pz         11.626362     0.067580
              2  2pz          2.716280     0.323907
                              0.772218     0.740895
    5.5 B1u   1  2pz          0.212032     1.000000
              2  2pz   
    1.6 B2g   1  2px         11.626362     0.067580
              2 -2px          2.716280     0.323907
                              0.772218     0.740895
    2.6 B2g   1  2px          0.212032     1.000000
              2 -2px   
    1.7 B3g   1  2py         11.626362     0.067580
              2 -2py          2.716280     0.323907
                              0.772218     0.740895
    2.7 B3g   1  2py          0.212032     1.000000
              2 -2py   

 NUCLEAR CHARGE:                   14
 NUMBER OF PRIMITIVE AOS:          44
 NUMBER OF SYMMETRY AOS:           44
 NUMBER OF CONTRACTIONS:           18   (    5Ag  +    2B3u +    2B2u +    0B1g +    5B1u +    2B2g +    2B3g +    0Au  )
 NUMBER OF CORE ORBITALS:           2   (    1Ag  +    0B3u +    0B2u +    0B1g +    1B1u +    0B2g +    0B3g +    0Au  )
 NUMBER OF VALENCE ORBITALS:        8   (    2Ag  +    1B3u +    1B2u +    0B1g +    2B1u +    1B2g +    1B3g +    0Au  )


 NUCLEAR REPULSION ENERGY   16.33333333

 Eigenvalues of metric

         1 0.238E+00 0.415E+00 0.926E+00 0.155E+01 0.276E+01
         2 0.544E+00 0.186E+01
         3 0.544E+00 0.186E+01
         5 0.420E-01 0.342E+00 0.806E+00 0.100E+01 0.192E+01
         6 0.352E+00 0.124E+01
         7 0.352E+00 0.124E+01


 Contracted 2-electron integrals neglected if value below      1.0D-11
 AO integral compression algorithm  1   Integral accuracy      1.0D-11

     0.262 MB (compressed) written to integral file (100.0%)


 NUMBER OF SORTED TWO-ELECTRON INTEGRALS:       2829.     BUFFER LENGTH:  32768
 NUMBER OF SEGMENTS:   1  SEGMENT LENGTH:       2829      RECORD LENGTH: 524288

 Memory used in sort:       0.56 MW

 SORT1 READ        8184. AND WROTE        2829. INTEGRALS IN      1 RECORDS. CPU TIME:     0.00 SEC, REAL TIME:     0.01 SEC
 SORT2 READ        2829. AND WROTE        2829. INTEGRALS IN      1 RECORDS. CPU TIME:     0.01 SEC, REAL TIME:     0.02 SEC

 FILE SIZES:   FILE 1:    30.2 MBYTE,  FILE 4:     4.2 MBYTE,   TOTAL:     34.4 MBYTE

 OPERATOR DM      FOR CENTER  0  COORDINATES:    0.000000    0.000000    0.000000


 **********************************************************************************************************************************
 DATASETS  * FILE   NREC   LENGTH (MB)   RECORD NAMES
              1      19       29.97       500      700      610      900      950      970     1000      129      960     1100   
                                          VAR     GEOM    BASINP   SYMINP    ZMAT    AOBASIS   BASIS     P2S    ABASIS      S 
                                         1400     1410     1200     1210     1080     1600     1650     1300     1700   
                                           T        V       H0       H01     AOSYM     SMH    MOLCAS    ERIS     OPER   

              3       5       14.77       500      610      700     1000     2100   
                                          VAR    BASINP    GEOM     BASIS     RHF  

 PROGRAMS   *        TOTAL       INT   RESTART
 CPU TIMES  *         0.26      0.14      0.01
 REAL TIME  *         0.42 SEC
 DISK USED  *        49.44 MB
 **********************************************************************************************************************************


 PROGRAM * CISD (Closed-shell CI(SD))     Authors: C. Hampel, H.-J. Werner, 1991, M. Deegan, P.J. Knowles, 1992


 Input parameters for THRESH:

 ENERGY   =    1.00D-10
 COEFF    =    1.00D-12
 PRINTCI  =    0.000000
 THRPRINT =    0.000000

 Convergence thresholds:  THRVAR = 1.00D-24  THRDEN = 1.00D-10

 Number of core orbitals:           2 (   1   0   0   0   1   0   0 )
 Number of closed-shell orbitals:   5 (   2   1   1   0   1   0   0 )
 Number of external orbitals:      11 (   2   1   1   0   3   2   2 )

 Molecular orbitals read from record     2100.3  Type=RHF/CANONICAL (state 1.1)

 Number of N-1 electron functions:               5
 Number of N-2 electron functions:              15
 Number of singly external CSFs:                 9
 Number of doubly external CSFs:               250
 Total number of CSFs:                         260

 Length of J-op  integral file:               0.00 MB
 Length of K-op  integral file:               0.04 MB

 Integral transformation finished. Total CPU:   0.00 sec, npass=  1  Memory used:   0.07 MW

 Reference energy:                   -108.56037943

 MP2 singlet pair energy:              -0.25607588
 MP2 triplet pair energy:              -0.20952665
 MP2 correlation energy:               -0.46560253
 MP2 total energy:                   -109.02598196

 SCS-MP2 correlation energy:           -0.43766319   (PS=  1.200000  PT=  0.333333)
 SCS-MP2 total energy:               -108.99804263

 ITER.      SQ.NORM     CORR.ENERGY   TOTAL ENERGY   ENERGY CHANGE        DEN1      VAR(S)    VAR(P)  DIIS     TIME  TIME/IT
   1      1.05704965    -0.56531416  -109.12569359    -0.09971163     0.35274498  0.19D-01  0.27D+00  0  0     0.01     0.01
   2      1.26084269    -0.42084241  -108.98122184     0.14447175    -0.28932473  0.21D-01  0.18D+00  1  1     0.02     0.00
   3      1.12768566    -0.23301149  -108.79339092     0.18783092     0.12661732  0.88D-04  0.31D-03  2  2     0.02     0.00
   4      1.11686547    -0.29909171  -108.85947114    -0.06608023     0.00842027  0.13D-04  0.14D-03  3  3     0.02     0.00
   5      1.10443401    -0.29673883  -108.85711826     0.00235289     0.00991756  0.16D-04  0.90D-04  4  4     0.03     0.00
   6      1.13323153    -0.29296384  -108.85334327     0.00377499    -0.01863054  0.33D-05  0.85D-04  5  5     0.03     0.00
   7      1.17986055    -0.30006244  -108.86044187    -0.00709860    -0.02243699  0.12D-05  0.32D-04  6  6     0.03     0.00
   8      1.18503572    -0.30382928  -108.86420872    -0.00376685    -0.00207837  0.52D-06  0.62D-05  6  1     0.04     0.00
   9      1.19508939    -0.30394326  -108.86432269    -0.00011397    -0.00409391  0.40D-07  0.15D-05  6  2     0.04     0.00
  10      1.19455336    -0.30401340  -108.86439284    -0.00007015     0.00049390  0.24D-07  0.19D-06  6  1     0.04     0.00
  11      1.19497221    -0.30401512  -108.86439456    -0.00000172    -0.00012629  0.73D-09  0.17D-07  6  3     0.05     0.00
  12      1.19472198    -0.30401527  -108.86439470    -0.00000015     0.00010944  0.22D-09  0.24D-08  6  5     0.05     0.00
  13      1.19477507    -0.30401531  -108.86439474    -0.00000004    -0.00002417  0.35D-10  0.31D-09  6  4     0.05     0.00
  14      1.19477602    -0.30401531  -108.86439475    -0.00000000    -0.00000187  0.20D-11  0.29D-10  6  1     0.05     0.00
  15      1.19477270    -0.30401531  -108.86439475    -0.00000000     0.00000025  0.53D-12  0.20D-11  6  6     0.06     0.00
  16      1.19477120    -0.30401531  -108.86439475    -0.00000000     0.00000054  0.59D-13  0.41D-12  6  3     0.06     0.00
  17      1.19477166    -0.30401531  -108.86439475    -0.00000000    -0.00000018  0.25D-13  0.11D-12  6  2     0.06     0.00
  18      1.19477174    -0.30401531  -108.86439475    -0.00000000     0.00000004  0.38D-15  0.91D-14  6  5     0.07     0.00
  19      1.19477184    -0.30401531  -108.86439475    -0.00000000    -0.00000002  0.60D-16  0.43D-15  6  4     0.07     0.00
  20      1.19477184    -0.30401531  -108.86439475    -0.00000000     0.00000000  0.16D-16  0.56D-16  6  1     0.07     0.00
  21      1.19477185    -0.30401531  -108.86439475     0.00000000    -0.00000000  0.74D-18  0.43D-17  6  3     0.07     0.00
  22      1.19477185    -0.30401531  -108.86439475     0.00000000    -0.00000000  0.35D-19  0.80D-18  6  6     0.07     0.00
  23      1.19477185    -0.30401531  -108.86439475     0.00000000     0.00000000  0.50D-20  0.19D-18  6  2     0.08     0.00
  24      1.19477185    -0.30401531  -108.86439475     0.00000000    -0.00000000  0.68D-21  0.11D-19  6  5     0.08     0.00
  25      1.19477185    -0.30401531  -108.86439475     0.00000000    -0.00000000  0.19D-21  0.22D-20  6  4     0.08     0.00
  26      1.19477185    -0.30401531  -108.86439475     0.00000000    -0.00000000  0.83D-22  0.52D-21  6  3     0.08     0.00
  27      1.19477185    -0.30401531  -108.86439475     0.00000000     0.00000000  0.15D-23  0.24D-22  6  1     0.09     0.00
  28      1.19477185    -0.30401531  -108.86439475     0.00000000     0.00000000  0.48D-25  0.86D-24  6  2     0.09     0.00


 ! DIPOLE MOMENTS:                      0.00000000     0.00000000     0.00000000



 Norm of t1 vector:      0.08442210      S-energy:    -0.00181352      T1 diagnostic:  0.01887736

 Singles amplitudes (print threshold =  0.000E+00):

         I         SYM. A    A   T(IA)

         1         1         1      0.00640830
         1         1         2     -0.00261488
         2         1         1     -0.00145047
         2         1         2     -0.01847196
         3         2         1      0.03785187
         4         3         1      0.03785187
         5         5         1      0.01574919
         5         5         2     -0.00764382
         5         5         3      0.00057518

 Doubles amplitudes (print threshold =  0.000E+00):

         I         J         SYM. A    SYM. B    A         B      T(IJ, AB)

         1         1         1         1         1         1     -0.00441291
         1         1         1         1         1         2     -0.00391855
         1         1         1         1         2         1     -0.00391855
         1         1         1         1         2         2     -0.00979736
         1         1         2         2         1         1     -0.00540802
         1         1         3         3         1         1     -0.00540802
         1         1         5         5         1         1     -0.02864884
         1         1         5         5         1         2      0.00752789
         1         1         5         5         1         3      0.00951227
         1         1         5         5         2         1      0.00752789
         1         1         5         5         2         2     -0.00408076
         1         1         5         5         2         3     -0.00189665
         1         1         5         5         3         1      0.00951227
         1         1         5         5         3         2     -0.00189665
         1         1         5         5         3         3     -0.00639979
         1         1         6         6         1         1     -0.01662646
         1         1         6         6         1         2      0.00742281
         1         1         6         6         2         1      0.00742281
         1         1         6         6         2         2     -0.00461808
         1         1         7         7         1         1     -0.01662646
         1         1         7         7         1         2      0.00742281
         1         1         7         7         2         1      0.00742281
         1         1         7         7         2         2     -0.00461808
         2         1         1         1         1         1      0.00914125
         2         1         1         1         1         2      0.00336358
         2         1         1         1         2         1     -0.00397209
         2         1         1         1         2         2     -0.00709757
         2         1         2         2         1         1      0.00200652
         2         1         3         3         1         1      0.00200652
         2         1         5         5         1         1     -0.02573391
         2         1         5         5         1         2      0.00521046
         2         1         5         5         1         3      0.01078241
         2         1         5         5         2         1      0.01269396
         2         1         5         5         2         2      0.00262286
         2         1         5         5         2         3     -0.00862863
         2         1         5         5         3         1      0.00982036
         2         1         5         5         3         2     -0.00481923
         2         1         5         5         3         3     -0.00103547
         2         1         6         6         1         1      0.00760027
         2         1         6         6         1         2     -0.00122108
         2         1         6         6         2         1      0.00047938
         2         1         6         6         2         2      0.00083011
         2         1         7         7         1         1      0.00760027
         2         1         7         7         1         2     -0.00122108
         2         1         7         7         2         1      0.00047938
         2         1         7         7         2         2      0.00083011
         2         2         1         1         1         1     -0.01973478
         2         2         1         1         1         2      0.00681003
         2         2         1         1         2         1      0.00681003
         2         2         1         1         2         2     -0.00501621
         2         2         2         2         1         1     -0.00231379
         2         2         3         3         1         1     -0.00231379
         2         2         5         5         1         1     -0.07521603
         2         2         5         5         1         2      0.02692123
         2         2         5         5         1         3     -0.00180949
         2         2         5         5         2         1      0.02692123
         2         2         5         5         2         2     -0.02651500
         2         2         5         5         2         3      0.00306127
         2         2         5         5         3         1     -0.00180949
         2         2         5         5         3         2      0.00306127
         2         2         5         5         3         3     -0.00336509
         2         2         6         6         1         1     -0.02049362
         2         2         6         6         1         2      0.00283781
         2         2         6         6         2         1      0.00283781
         2         2         6         6         2         2     -0.00220195
         2         2         7         7         1         1     -0.02049362
         2         2         7         7         1         2      0.00283781
         2         2         7         7         2         1      0.00283781
         2         2         7         7         2         2     -0.00220195
         3         3         1         1         1         1     -0.00445335
         3         3         1         1         1         2     -0.00344077
         3         3         1         1         2         1     -0.00344077
         3         3         1         1         2         2     -0.00625324
         3         3         2         2         1         1     -0.01820316
         3         3         3         3         1         1     -0.00126177
         3         3         5         5         1         1     -0.01698097
         3         3         5         5         1         2      0.00166718
         3         3         5         5         1         3      0.00133804
         3         3         5         5         2         1      0.00166718
         3         3         5         5         2         2     -0.00179186
         3         3         5         5         2         3      0.00101298
         3         3         5         5         3         1      0.00133804
         3         3         5         5         3         2      0.00101298
         3         3         5         5         3         3     -0.00368042
         3         3         6         6         1         1     -0.19593496
         3         3         6         6         1         2      0.03192017
         3         3         6         6         2         1      0.03192017
         3         3         6         6         2         2     -0.01436350
         3         3         7         7         1         1     -0.01808560
         3         3         7         7         1         2      0.00240604
         3         3         7         7         2         1      0.00240604
         3         3         7         7         2         2     -0.00105551
         4         4         1         1         1         1     -0.00445335
         4         4         1         1         1         2     -0.00344077
         4         4         1         1         2         1     -0.00344077
         4         4         1         1         2         2     -0.00625324
         4         4         2         2         1         1     -0.00126177
         4         4         3         3         1         1     -0.01820316
         4         4         5         5         1         1     -0.01698097
         4         4         5         5         1         2      0.00166718
         4         4         5         5         1         3      0.00133804
         4         4         5         5         2         1      0.00166718
         4         4         5         5         2         2     -0.00179186
         4         4         5         5         2         3      0.00101298
         4         4         5         5         3         1      0.00133804
         4         4         5         5         3         2      0.00101298
         4         4         5         5         3         3     -0.00368042
         4         4         6         6         1         1     -0.01808560
         4         4         6         6         1         2      0.00240604
         4         4         6         6         2         1      0.00240604
         4         4         6         6         2         2     -0.00105551
         4         4         7         7         1         1     -0.19593496
         4         4         7         7         1         2      0.03192017
         4         4         7         7         2         1      0.03192017
         4         4         7         7         2         2     -0.01436350
         5         5         1         1         1         1     -0.01344778
         5         5         1         1         1         2     -0.00156361
         5         5         1         1         2         1     -0.00156361
         5         5         1         1         2         2     -0.00253064
         5         5         2         2         1         1     -0.00619010
         5         5         3         3         1         1     -0.00619010
         5         5         5         5         1         1     -0.02758114
         5         5         5         5         1         2      0.00632000
         5         5         5         5         1         3      0.00143836
         5         5         5         5         2         1      0.00632000
         5         5         5         5         2         2     -0.01188988
         5         5         5         5         2         3      0.00533095
         5         5         5         5         3         1      0.00143836
         5         5         5         5         3         2      0.00533095
         5         5         5         5         3         3     -0.00635978
         5         5         6         6         1         1     -0.04584840
         5         5         6         6         1         2      0.01088647
         5         5         6         6         2         1      0.01088647
         5         5         6         6         2         2     -0.00574318
         5         5         7         7         1         1     -0.04584840
         5         5         7         7         1         2      0.01088647
         5         5         7         7         2         1      0.01088647
         5         5         7         7         2         2     -0.00574318
         3         1         1         2         1         1      0.00534857
         3         1         1         2         2         1      0.00474826
         3         1         2         1         1         1      0.01045894
         3         1         2         1         1         2      0.01123832
         3         1         5         6         1         1     -0.02598112
         3         1         5         6         1         2      0.00790614
         3         1         5         6         2         1     -0.00142513
         3         1         5         6         2         2      0.00153528
         3         1         5         6         3         1      0.00220496
         3         1         5         6         3         2     -0.00379308
         3         1         6         5         1         1     -0.02735472
         3         1         6         5         1         2     -0.00025588
         3         1         6         5         1         3      0.00697452
         3         1         6         5         2         1      0.01383035
         3         1         6         5         2         2      0.00090387
         3         1         6         5         2         3     -0.00832018
         3         2         1         2         1         1     -0.00384040
         3         2         1         2         2         1      0.00020184
         3         2         2         1         1         1     -0.01431146
         3         2         2         1         1         2      0.00695952
         3         2         5         6         1         1     -0.02501754
         3         2         5         6         1         2      0.00487179
         3         2         5         6         2         1      0.01253245
         3         2         5         6         2         2     -0.00478647
         3         2         5         6         3         1      0.00181969
         3         2         5         6         3         2      0.00175506
         3         2         6         5         1         1     -0.05933090
         3         2         6         5         1         2      0.02385547
         3         2         6         5         1         3      0.00034052
         3         2         6         5         2         1      0.01478353
         3         2         6         5         2         2     -0.01473444
         3         2         6         5         2         3      0.00128340
         4         1         1         3         1         1      0.00534857
         4         1         1         3         2         1      0.00474826
         4         1         3         1         1         1      0.01045894
         4         1         3         1         1         2      0.01123832
         4         1         5         7         1         1     -0.02598112
         4         1         5         7         1         2      0.00790614
         4         1         5         7         2         1     -0.00142513
         4         1         5         7         2         2      0.00153528
         4         1         5         7         3         1      0.00220496
         4         1         5         7         3         2     -0.00379308
         4         1         7         5         1         1     -0.02735472
         4         1         7         5         1         2     -0.00025588
         4         1         7         5         1         3      0.00697452
         4         1         7         5         2         1      0.01383035
         4         1         7         5         2         2      0.00090387
         4         1         7         5         2         3     -0.00832018
         4         2         1         3         1         1     -0.00384040
         4         2         1         3         2         1      0.00020184
         4         2         3         1         1         1     -0.01431146
         4         2         3         1         1         2      0.00695952
         4         2         5         7         1         1     -0.02501754
         4         2         5         7         1         2      0.00487179
         4         2         5         7         2         1      0.01253245
         4         2         5         7         2         2     -0.00478647
         4         2         5         7         3         1      0.00181969
         4         2         5         7         3         2      0.00175506
         4         2         7         5         1         1     -0.05933090
         4         2         7         5         1         2      0.02385547
         4         2         7         5         1         3      0.00034052
         4         2         7         5         2         1      0.01478353
         4         2         7         5         2         2     -0.01473444
         4         2         7         5         2         3      0.00128340
         4         3         2         3         1         1     -0.00111711
         4         3         3         2         1         1     -0.01582428
         4         3         6         7         1         1     -0.08289481
         4         3         6         7         1         2      0.01067990
         4         3         6         7         2         1      0.01067990
         4         3         6         7         2         2     -0.00220237
         4         3         7         6         1         1     -0.09495455
         4         3         7         6         1         2      0.01883423
         4         3         7         6         2         1      0.01883423
         4         3         7         6         2         2     -0.01110561
         5         1         1         5         1         1      0.00412896
         5         1         1         5         1         2      0.00390790
         5         1         1         5         1         3     -0.00573402
         5         1         1         5         2         1      0.00864693
         5         1         1         5         2         2     -0.00251387
         5         1         1         5         2         3     -0.00413672
         5         1         2         6         1         1     -0.01171697
         5         1         2         6         1         2      0.00589785
         5         1         3         7         1         1     -0.01171697
         5         1         3         7         1         2      0.00589785
         5         1         5         1         1         1      0.00149472
         5         1         5         1         1         2      0.00800122
         5         1         5         1         2         1      0.00630244
         5         1         5         1         2         2      0.00030804
         5         1         5         1         3         1     -0.00531486
         5         1         5         1         3         2     -0.00665750
         5         1         6         2         1         1     -0.00948963
         5         1         6         2         2         1      0.00575930
         5         1         7         3         1         1     -0.00948963
         5         1         7         3         2         1      0.00575930
         5         2         1         5         1         1      0.01337161
         5         2         1         5         1         2     -0.01831329
         5         2         1         5         1         3      0.00370471
         5         2         1         5         2         1      0.00723890
         5         2         1         5         2         2     -0.00264185
         5         2         1         5         2         3     -0.00209311
         5         2         2         6         1         1      0.00662778
         5         2         2         6         1         2     -0.00255085
         5         2         3         7         1         1      0.00662778
         5         2         3         7         1         2     -0.00255085
         5         2         5         1         1         1      0.00315957
         5         2         5         1         1         2      0.00778590
         5         2         5         1         2         1     -0.01587740
         5         2         5         1         2         2      0.00248868
         5         2         5         1         3         1      0.00818467
         5         2         5         1         3         2     -0.00560866
         5         2         6         2         1         1      0.00671963
         5         2         6         2         2         1     -0.00285831
         5         2         7         3         1         1      0.00671963
         5         2         7         3         2         1     -0.00285831
         5         3         1         6         1         1      0.01652625
         5         3         1         6         1         2     -0.01291511
         5         3         1         6         2         1      0.00864702
         5         3         1         6         2         2     -0.00551642
         5         3         2         5         1         1     -0.00485696
         5         3         2         5         1         2     -0.00339030
         5         3         2         5         1         3      0.00432395
         5         3         5         2         1         1     -0.00557350
         5         3         5         2         2         1     -0.01005564
         5         3         5         2         3         1      0.01141908
         5         3         6         1         1         1      0.01031318
         5         3         6         1         1         2      0.00136829
         5         3         6         1         2         1     -0.00698919
         5         3         6         1         2         2     -0.00356365
         5         4         1         7         1         1      0.01652625
         5         4         1         7         1         2     -0.01291511
         5         4         1         7         2         1      0.00864702
         5         4         1         7         2         2     -0.00551642
         5         4         3         5         1         1     -0.00485696
         5         4         3         5         1         2     -0.00339030
         5         4         3         5         1         3      0.00432395
         5         4         5         3         1         1     -0.00557350
         5         4         5         3         2         1     -0.01005564
         5         4         5         3         3         1      0.01141908
         5         4         7         1         1         1      0.01031318
         5         4         7         1         1         2      0.00136829
         5         4         7         1         2         1     -0.00698919
         5         4         7         1         2         2     -0.00356365


 RESULTS
 =======

  Reference energy                   -108.560379433159
  CISD singlet pair energy             -0.244743236608
  CISD triplet pair energy             -0.057458551860
  CISD correlation energy              -0.304015312061

 !CISD total energy                  -108.864394745219

 Timing summary (sec):

 STEP                 CPU(USER)    SYS     CPU(TOT)    WALL
 CCSD iterations         0.09      0.00      0.09      0.11

 Program statistics:

 Available memory in ccsd:                39999100
 Min. memory needed in ccsd:                  2282
 Max. memory used in ccsd:                    2323
 Max. memory used in cckext:                 35469 (28 integral passes)



 **********************************************************************************************************************************
 DATASETS  * FILE   NREC   LENGTH (MB)   RECORD NAMES
              1      20       29.99       500      700      610      900      950      970     1000      129      960     1100   
                                          VAR     GEOM    BASINP   SYMINP    ZMAT    AOBASIS   BASIS     P2S    ABASIS      S 
                                         1400     1410     1200     1210     1080     1600     1650     1300     1700     1380   
                                           T        V       H0       H01     AOSYM     SMH    MOLCAS    ERIS     OPER     JKOP   

              3       5       14.77       500      610      700     1000     2100   
                                          VAR    BASINP    GEOM     BASIS     RHF  

 PROGRAMS   *        TOTAL      CISD       INT   RESTART
 CPU TIMES  *         0.43      0.17      0.14      0.01
 REAL TIME  *         0.61 SEC
 DISK USED  *        49.44 MB
 **********************************************************************************************************************************
 Molecular orbitals read from record     2100.3  Type=RHF/CANONICAL (state 1.1)
 Occupation numbers read from record     2100.3  Type=RHF/RHF (state 1.1)
 Orbital energies read from record       2100.3  Type=RHF/CANONICAL (state 1.1)
 Redundancy group numbers read from rec  2100.3  Type=RHF/RHF (state 1.1)

 CISD/6-31G energy=   -108.864394745219

            CISD
   -108.86439475
 **********************************************************************************************************************************
 Molpro calculation terminated
