
 Primary working directories    : /scr/yuriaoto/job.023586/molpro.XCqeSL1aWz
 Secondary working directories  : /scr/yuriaoto/job.023586/molpro.XCqeSL1aWz
 Wavefunction directory         : /scr/yuriaoto/job.023586/
 Main file repository           : /scr/yuriaoto/job.023586/molpro.XCqeSL1aWz/

 id        : yuriaoto

 Nodes             nprocs
 t-rex.ufabc.int.br    1

 Using customized tuning parameters: mindgm=8; mindgv=16; mindgc=1; mindgr=1; noblas=0; minvec=7
 default implementation of scratch files=df  


 Variables initialized (933), CPU time= 0.00 sec
 ***,
 memory,40,m
 gprint,orbital,basis,civector
 gthresh,thrprint=0,printci=0.0
 file,3,wfu.dat,old
 
 {ccsd,CC_NORM_MAX=10.0
 nosingle
 thresh,printci=0.0,ENERGY=1.0E-10,COEFF=1.0E-12
 print,ref=1
 wf,14,1,0;
 }
 
 Commands  initialized (760), CPU time= 0.01 sec, 617 directives.
 Default parameters read. Elapsed time= 0.04 sec

 Checking input...
 Passed
1


                                         ***  PROGRAM SYSTEM MOLPRO  ***
                                       Copyright, TTI GmbH Stuttgart, 2015
                                    Version 2019.2 linked Abr  7 2019 15:10:35


 **********************************************************************************************************************************
 LABEL *                                                                                 
  64 bit serial version                                                                  DATE: 05-Jun-20          TIME: 21:23:08  
 **********************************************************************************************************************************

 SHA1:             3a8a58c585c929645742fb5a1b7541a4ad1da699
 **********************************************************************************************************************************


 THRESHOLDS:

 ZERO    =  1.00D-12  ONEINT  =  1.00D-12  TWOINT  =  1.00D-11  PREFAC  =  1.00D-14  XXXXXX  =  1.00D-09  EORDER  =  1.00D-04
 ENERGY  =  0.00D+00  ETEST   =  0.00D+00  EDENS   =  0.00D+00  THRDEDEF=  1.00D-06  GRADIENT=  1.00D-02  STEP    =  1.00D-03
 ORBITAL =  1.00D-05  CIVEC   =  1.00D-05  COEFF   =  1.00D-04  PRINTCI =  0.00D+00  PUNCHCI =  9.90D+01  OPTGRAD =  3.00D-04
 OPTENERG=  1.00D-06  OPTSTEP =  3.00D-04  THRGRAD =  1.00D-10  COMPRESS=  1.00D-11  VARMIN  =  1.00D-07  VARMAX  =  1.00D-03
 THRDOUB =  0.00D+00  THRDIV  =  1.00D-05  THRRED  =  1.00D-07  THRPSP  =  1.00D+00  THRDC   =  1.00D-10  THRCS   =  1.00D-10
 THRNRM  =  1.00D-08  THREQ   =  0.00D+00  THRDE   =  1.00D+00  THRREF  =  1.00D-05  SPARFAC =  1.00D+00  THRDLP  =  1.00D-07
 THRDIA  =  1.00D-10  THRDLS  =  1.00D-07  THRGPS  =  0.00D+00  THRKEX  =  0.00D+00  THRDIS  =  2.00D-01  THRVAR  =  1.00D-10
 THRLOC  =  1.00D-06  THRGAP  =  1.00D-06  THRLOCT = -1.00D+00  THRGAPT = -1.00D+00  THRORB  =  1.00D-06  THRMLTP =  0.00D+00
 THRCPQCI=  1.00D-10  KEXTA   =  0.00D+00  THRCOARS=  0.00D+00  SYMTOL  =  1.00D-06  GRADTOL =  1.00D-06  THROVL  =  1.00D-08
 THRORTH =  1.00D-08  GRID    =  1.00D-06  GRIDMAX =  1.00D-03  DTMAX   =  0.00D+00  THROCCDE=  1.00D-01  THROCCDE=  1.00D-01
 THRPRINT=  0.00D+00


 Variable memory set to   40000000 words,  buffer space 



 Permanent file  3  wfu.dat  assigned.  Implementation=df    Size= 14.09 MB


 PROGRAM * RESTART 


 Reading variables from file 3

 _FNUC           =      0.00000000
 _BASIS          =    CC-PVDZ
 _NELEC          =     14.00000000
 _PROGRAM        =    RHF-SCF
 _DMX_SCF        =      0.00000000
 _DMY_SCF        =      0.00000000
 _DMZ_SCF        =      0.00000000
 _HOMO           =      1.20000000
 _EHOMO          =     -0.46392077
 _LUMO           =      1.60000000
 _ELUMO          =     -0.00944908
 _ENERGY         =   -108.60622581
 _ENERGY_METHOD  =    RHF
 _ENERGY_BASIS   =    cc-pVDZ
 _ENUC           =     16.33333333
 _EPS1(1:7)      =    -15.79676678    -1.19737912    -0.55506402     0.94628654     1.05507753     1.91447057
                        2.03771558
 _EPS2(1:3)      =     -0.46392077     0.91310838     1.72264736
 _EPS3(1:3)      =     -0.46392077     0.91310838     1.72264736
 _EPS4           =      1.91447057
 _EPS5(1:7)      =    -15.79614860    -0.90460729     0.23671206     0.86826039     1.39142551     2.07157051
                        3.02778440
 _EPS6(1:3)      =     -0.00944908     0.99822150     2.45091804
 _EPS7(1:3)      =     -0.00944908     0.99822150     2.45091804
 _EPS8           =      2.07157051
 _IPROC_MPP      =      0.00000000
 _IPROC_MPPX     =      0.00000000
 _ORBITAL        =   2100.30000000
 _STATUS         =      1.00000000
 _DATE           =    23-Mar-20
 _LASTORB        =    RHF
 _OUTPUT         =    /scr/yuriaoto/job.022817/RHF.xml
 _PGROUP         =    D2h 
 _TIME           =    14:41:20
 R               =      3.00000000

 Geometry written to block  1 of record 700


 **********************************************************************************************************************************
 DATASETS  * FILE   NREC   LENGTH (MB)   RECORD NAMES
              3       5       14.77       500      610      700     1000     2100   
                                          VAR    BASINP    GEOM     BASIS     RHF  

 PROGRAMS   *        TOTAL   RESTART
 CPU TIMES  *         0.12      0.02
 REAL TIME  *         0.14 SEC
 DISK USED  *        26.84 MB
 **********************************************************************************************************************************


 Recomputing integrals since basis changed


 Using spherical harmonics

 Library entry N      S cc-pVDZ              selected for orbital group  1
 Library entry N      P cc-pVDZ              selected for orbital group  1
 Library entry N      D cc-pVDZ              selected for orbital group  1


 PROGRAM * SEWARD (Integral evaluation for generally contracted gaussian basis sets)     Author: Roland Lindh, 1990

 Geometry written to block  1 of record 700

 Orientation using atomic masses  
 Molecule type: Linear
 User-specified symmetry elements: X,Y,Z
 Symmetry elements: X,Y,Z
 Rotational constants:      28.6329822     28.6329822      0.0000000 GHz  (calculated with average atomic masses)

 Point group  D2h 



 ATOMIC COORDINATES

 NR  ATOM    CHARGE       X              Y              Z

   1  N1      7.00    0.000000000    0.000000000   -1.500000000
   2  N2      7.00    0.000000000    0.000000000    1.500000000

 Bond lengths in Bohr (Angstrom)

 1-2  3.000000000
     ( 1.587531633)


 BASIS DATA

   Nr Sym  Nuc  Type         Exponents   Contraction coefficients

    1.1 Ag    1  1s        9046.000000     0.000700   -0.000153    0.000000
    2.1 Ag    2  1s        1357.000000     0.005389   -0.001208    0.000000
    3.1 Ag                  309.300000     0.027406   -0.005992    0.000000
                             87.730000     0.103207   -0.024544    0.000000
                             28.560000     0.278723   -0.067459    0.000000
                             10.210000     0.448540   -0.158078    0.000000
                              3.838000     0.278238   -0.121831    0.000000
                              0.746600     0.015440    0.549003    0.000000
                              0.224800    -0.002864    0.578815    1.000000
    4.1 Ag    1  2pz         13.550000     0.039919    0.000000
    5.1 Ag    2 -2pz          2.917000     0.217169    0.000000
                              0.797300     0.510319    0.000000
                              0.218500     0.462214    1.000000
    6.1 Ag    1  3d0          0.817000     1.000000
              2  3d0   
    7.1 Ag    1  3d2+         0.817000     1.000000
              2  3d2+  
    1.2 B3u   1  2px         13.550000     0.039919    0.000000
    2.2 B3u   2  2px          2.917000     0.217169    0.000000
                              0.797300     0.510319    0.000000
                              0.218500     0.462214    1.000000
    3.2 B3u   1  3d1+         0.817000     1.000000
              2 -3d1+  
    1.3 B2u   1  2py         13.550000     0.039919    0.000000
    2.3 B2u   2  2py          2.917000     0.217169    0.000000
                              0.797300     0.510319    0.000000
                              0.218500     0.462214    1.000000
    3.3 B2u   1  3d1-         0.817000     1.000000
              2 -3d1-  
    1.4 B1g   1  3d2-         0.817000     1.000000
              2  3d2-  
    1.5 B1u   1  1s        9046.000000     0.000700   -0.000153    0.000000
    2.5 B1u   2 -1s        1357.000000     0.005389   -0.001208    0.000000
    3.5 B1u                 309.300000     0.027406   -0.005992    0.000000
                             87.730000     0.103207   -0.024544    0.000000
                             28.560000     0.278723   -0.067459    0.000000
                             10.210000     0.448540   -0.158078    0.000000
                              3.838000     0.278238   -0.121831    0.000000
                              0.746600     0.015440    0.549003    0.000000
                              0.224800    -0.002864    0.578815    1.000000
    4.5 B1u   1  2pz         13.550000     0.039919    0.000000
    5.5 B1u   2  2pz          2.917000     0.217169    0.000000
                              0.797300     0.510319    0.000000
                              0.218500     0.462214    1.000000
    6.5 B1u   1  3d0          0.817000     1.000000
              2 -3d0   
    7.5 B1u   1  3d2+         0.817000     1.000000
              2 -3d2+  
    1.6 B2g   1  2px         13.550000     0.039919    0.000000
    2.6 B2g   2 -2px          2.917000     0.217169    0.000000
                              0.797300     0.510319    0.000000
                              0.218500     0.462214    1.000000
    3.6 B2g   1  3d1+         0.817000     1.000000
              2  3d1+  
    1.7 B3g   1  2py         13.550000     0.039919    0.000000
    2.7 B3g   2 -2py          2.917000     0.217169    0.000000
                              0.797300     0.510319    0.000000
                              0.218500     0.462214    1.000000
    3.7 B3g   1  3d1-         0.817000     1.000000
              2  3d1-  
    1.8 Au    1  3d2-         0.817000     1.000000
              2 -3d2-  

 NUCLEAR CHARGE:                   14
 NUMBER OF PRIMITIVE AOS:          54
 NUMBER OF SYMMETRY AOS:           52
 NUMBER OF CONTRACTIONS:           28   (    7Ag  +    3B3u +    3B2u +    1B1g +    7B1u +    3B2g +    3B3g +    1Au  )
 NUMBER OF CORE ORBITALS:           2   (    1Ag  +    0B3u +    0B2u +    0B1g +    1B1u +    0B2g +    0B3g +    0Au  )
 NUMBER OF VALENCE ORBITALS:        8   (    2Ag  +    1B3u +    1B2u +    0B1g +    2B1u +    1B2g +    1B3g +    0Au  )


 NUCLEAR REPULSION ENERGY   16.33333333

 EXTRA SYMMETRY OF AOS IN SYMMETRY 1:   1 1 1 1 1 1 2
 EXTRA SYMMETRY OF AOS IN SYMMETRY 5:   1 1 1 1 1 1 2

 Eigenvalues of metric

         1 0.453E-01 0.160E+00 0.100E+01 0.103E+01 0.121E+01 0.168E+01 0.337E+01
         2 0.196E+00 0.113E+01 0.236E+01
         3 0.196E+00 0.113E+01 0.236E+01
         4 0.103E+01
         5 0.148E-01 0.123E+00 0.368E+00 0.923E+00 0.975E+00 0.100E+01 0.211E+01
         6 0.152E+00 0.785E+00 0.137E+01
         7 0.152E+00 0.785E+00 0.137E+01
         8 0.975E+00


 Contracted 2-electron integrals neglected if value below      1.0D-11
 AO integral compression algorithm  1   Integral accuracy      1.0D-11

     0.262 MB (compressed) written to integral file (100.0%)


 NUMBER OF SORTED TWO-ELECTRON INTEGRALS:      13015.     BUFFER LENGTH:  32768
 NUMBER OF SEGMENTS:   1  SEGMENT LENGTH:      13015      RECORD LENGTH: 524288

 Memory used in sort:       0.57 MW

 SORT1 READ       27440. AND WROTE       11779. INTEGRALS IN      1 RECORDS. CPU TIME:     0.00 SEC, REAL TIME:     0.01 SEC
 SORT2 READ       11779. AND WROTE       13015. INTEGRALS IN      1 RECORDS. CPU TIME:     0.02 SEC, REAL TIME:     0.03 SEC

 FILE SIZES:   FILE 1:    30.2 MBYTE,  FILE 4:     4.2 MBYTE,   TOTAL:     34.5 MBYTE

 OPERATOR DM      FOR CENTER  0  COORDINATES:    0.000000    0.000000    0.000000


 **********************************************************************************************************************************
 DATASETS  * FILE   NREC   LENGTH (MB)   RECORD NAMES
              1      19       30.05       500      700      610      900      950      970     1000      129      960     1100   
                                          VAR     GEOM    BASINP   SYMINP    ZMAT    AOBASIS   BASIS     P2S    ABASIS      S 
                                         1400     1410     1200     1210     1080     1600     1650     1300     1700   
                                           T        V       H0       H01     AOSYM     SMH    MOLCAS    ERIS     OPER   

              3       5       14.77       500      610      700     1000     2100   
                                          VAR    BASINP    GEOM     BASIS     RHF  

 PROGRAMS   *        TOTAL       INT   RESTART
 CPU TIMES  *         0.30      0.18      0.02
 REAL TIME  *         0.49 SEC
 DISK USED  *        49.46 MB
 **********************************************************************************************************************************


 PROGRAM * CCSD (Closed-shell coupled cluster)     Authors: C. Hampel, H.-J. Werner, 1991, M. Deegan, P.J. Knowles, 1992


 Input parameters for THRESH:

 ENERGY   =    1.00D-10
 COEFF    =    1.00D-12
 PRINTCI  =    0.000000
 THRPRINT =    0.000000

 Convergence thresholds:  THRVAR = 1.00D-24  THRDEN = 1.00D-10

 Number of core orbitals:           2 (   1   0   0   0   1   0   0   0 )
 Number of closed-shell orbitals:   5 (   2   1   1   0   1   0   0   0 )
 Number of external orbitals:      21 (   4   2   2   1   5   3   3   1 )

 Molecular orbitals read from record     2100.3  Type=RHF/CANONICAL (state 1.1)

 Number of N-1 electron functions:               0
 Number of N-2 electron functions:              15
 Number of singly external CSFs:                 0
 Number of doubly external CSFs:               802
 Total number of CSFs:                         803

 Length of J-op  integral file:               0.00 MB
 Length of K-op  integral file:               0.04 MB
 Length of 3-ext integral record:             0.00 MB

 Integral transformation finished. Total CPU:   0.00 sec, npass=  1  Memory used:   0.07 MW

 Reference energy:                   -108.60622581

 MP2 singlet pair energy:              -0.29939050
 MP2 triplet pair energy:              -0.22929696
 MP2 correlation energy:               -0.52868746
 MP2 total energy:                   -109.13491327

 SCS-MP2 correlation energy:           -0.50194227   (PS=  1.200000  PT=  0.333333)
 SCS-MP2 total energy:               -109.10816807

 ITER.      SQ.NORM     CORR.ENERGY   TOTAL ENERGY   ENERGY CHANGE        DEN1      VAR(S)    VAR(P)  DIIS     TIME  TIME/IT
   1      1.14167161    -0.44508260  -109.05130840     0.08360487     0.17575799  0.00D+00  0.81D-01  1  1     0.02     0.01
   2      1.19573699    -0.41906880  -109.02529461     0.02601380    -0.05503780  0.00D+00  0.24D-02  2  2     0.03     0.00
   3      1.21621908    -0.42040601  -109.02663182    -0.00133721    -0.00690850  0.00D+00  0.61D-03  3  3     0.03     0.00
   4      1.24766176    -0.42507391  -109.03129972    -0.00466790    -0.00802662  0.00D+00  0.99D-04  4  4     0.03     0.00
   5      1.25478537    -0.42418915  -109.03041496     0.00088476    -0.00081122  0.00D+00  0.11D-04  5  5     0.03     0.00
   6      1.25898449    -0.42462233  -109.03084814    -0.00043318    -0.00083410  0.00D+00  0.14D-05  6  6     0.04     0.00
   7      1.25946399    -0.42465929  -109.03088510    -0.00003696    -0.00008166  0.00D+00  0.10D-06  6  1     0.04     0.00
   8      1.25963657    -0.42465636  -109.03088216     0.00000293    -0.00001587  0.00D+00  0.80D-08  6  2     0.04     0.00
   9      1.25974248    -0.42466473  -109.03089054    -0.00000837    -0.00002795  0.00D+00  0.13D-08  6  3     0.05     0.00
  10      1.25970105    -0.42466216  -109.03088796     0.00000257     0.00001140  0.00D+00  0.78D-10  6  4     0.05     0.00
  11      1.25970115    -0.42466231  -109.03088811    -0.00000015    -0.00000060  0.00D+00  0.48D-11  6  5     0.05     0.00
  12      1.25970060    -0.42466229  -109.03088810     0.00000001     0.00000017  0.00D+00  0.74D-12  6  6     0.06     0.00
  13      1.25970101    -0.42466231  -109.03088811    -0.00000001    -0.00000009  0.00D+00  0.60D-13  6  1     0.06     0.00
  14      1.25970093    -0.42466230  -109.03088810     0.00000001     0.00000002  0.00D+00  0.58D-14  6  2     0.06     0.00
  15      1.25970093    -0.42466230  -109.03088810     0.00000000     0.00000000  0.00D+00  0.72D-15  6  3     0.07     0.00
  16      1.25970092    -0.42466230  -109.03088810    -0.00000000     0.00000000  0.00D+00  0.57D-16  6  4     0.07     0.00
  17      1.25970093    -0.42466230  -109.03088810    -0.00000000    -0.00000000  0.00D+00  0.37D-17  6  5     0.07     0.00
  18      1.25970093    -0.42466230  -109.03088810    -0.00000000    -0.00000000  0.00D+00  0.42D-18  6  6     0.07     0.00
  19      1.25970093    -0.42466230  -109.03088810     0.00000000     0.00000000  0.00D+00  0.12D-18  6  1     0.08     0.00
  20      1.25970093    -0.42466230  -109.03088810    -0.00000000    -0.00000000  0.00D+00  0.21D-19  6  2     0.08     0.00
  21      1.25970093    -0.42466230  -109.03088810     0.00000000     0.00000000  0.00D+00  0.41D-20  6  3     0.08     0.00
  22      1.25970093    -0.42466230  -109.03088810     0.00000000     0.00000000  0.00D+00  0.55D-21  6  4     0.09     0.00
  23      1.25970093    -0.42466230  -109.03088810     0.00000000     0.00000000  0.00D+00  0.55D-22  6  5     0.09     0.00
  24      1.25970093    -0.42466230  -109.03088810     0.00000000     0.00000000  0.00D+00  0.63D-23  6  6     0.09     0.00
  25      1.25970093    -0.42466230  -109.03088810     0.00000000     0.00000000  0.00D+00  0.76D-24  6  1     0.09     0.00


 Doubles amplitudes (print threshold =  0.000E+00):

         I         J         SYM. A    SYM. B    A         B      T(IJ, AB)

         1         1         1         1         1         1     -0.00433844
         1         1         1         1         1         2      0.00257591
         1         1         1         1         1         3     -0.00000000
         1         1         1         1         1         4      0.00188305
         1         1         1         1         2         1      0.00257591
         1         1         1         1         2         2     -0.01203124
         1         1         1         1         2         3      0.00000000
         1         1         1         1         2         4      0.00096337
         1         1         1         1         3         1     -0.00000000
         1         1         1         1         3         2      0.00000000
         1         1         1         1         3         3     -0.00525313
         1         1         1         1         3         4      0.00000000
         1         1         1         1         4         1      0.00188305
         1         1         1         1         4         2      0.00096337
         1         1         1         1         4         3      0.00000000
         1         1         1         1         4         4     -0.00727161
         1         1         2         2         1         1     -0.00612001
         1         1         2         2         1         2      0.00013620
         1         1         2         2         2         1      0.00013620
         1         1         2         2         2         2     -0.00804024
         1         1         3         3         1         1     -0.00612001
         1         1         3         3         1         2      0.00013620
         1         1         3         3         2         1      0.00013620
         1         1         3         3         2         2     -0.00804024
         1         1         4         4         1         1     -0.00525313
         1         1         5         5         1         1     -0.03236314
         1         1         5         5         1         2      0.00793751
         1         1         5         5         1         3      0.01026213
         1         1         5         5         1         4      0.00000000
         1         1         5         5         1         5     -0.00295979
         1         1         5         5         2         1      0.00793751
         1         1         5         5         2         2     -0.00448822
         1         1         5         5         2         3     -0.00166403
         1         1         5         5         2         4     -0.00000000
         1         1         5         5         2         5      0.00201692
         1         1         5         5         3         1      0.01026213
         1         1         5         5         3         2     -0.00166403
         1         1         5         5         3         3     -0.00730775
         1         1         5         5         3         4     -0.00000000
         1         1         5         5         3         5      0.00215985
         1         1         5         5         4         1      0.00000000
         1         1         5         5         4         2     -0.00000000
         1         1         5         5         4         3     -0.00000000
         1         1         5         5         4         4     -0.00525856
         1         1         5         5         4         5     -0.00000000
         1         1         5         5         5         1     -0.00295979
         1         1         5         5         5         2      0.00201692
         1         1         5         5         5         3      0.00215985
         1         1         5         5         5         4     -0.00000000
         1         1         5         5         5         5     -0.00342740
         1         1         6         6         1         1     -0.01600307
         1         1         6         6         1         2      0.00786833
         1         1         6         6         1         3     -0.00334101
         1         1         6         6         2         1      0.00786833
         1         1         6         6         2         2     -0.00508575
         1         1         6         6         2         3      0.00210208
         1         1         6         6         3         1     -0.00334101
         1         1         6         6         3         2      0.00210208
         1         1         6         6         3         3     -0.00461717
         1         1         7         7         1         1     -0.01600307
         1         1         7         7         1         2      0.00786833
         1         1         7         7         1         3     -0.00334101
         1         1         7         7         2         1      0.00786833
         1         1         7         7         2         2     -0.00508575
         1         1         7         7         2         3      0.00210208
         1         1         7         7         3         1     -0.00334101
         1         1         7         7         3         2      0.00210208
         1         1         7         7         3         3     -0.00461717
         1         1         8         8         1         1     -0.00525856
         2         1         1         1         1         1      0.00949617
         2         1         1         1         1         2     -0.00639620
         2         1         1         1         1         3     -0.00000000
         2         1         1         1         1         4      0.00045280
         2         1         1         1         2         1      0.00072251
         2         1         1         1         2         2     -0.00882573
         2         1         1         1         2         3      0.00000000
         2         1         1         1         2         4      0.00097621
         2         1         1         1         3         1     -0.00000000
         2         1         1         1         3         2      0.00000000
         2         1         1         1         3         3      0.00111282
         2         1         1         1         3         4      0.00000000
         2         1         1         1         4         1      0.00327209
         2         1         1         1         4         2      0.00070340
         2         1         1         1         4         3      0.00000000
         2         1         1         1         4         4     -0.00202134
         2         1         2         2         1         1      0.00220004
         2         1         2         2         1         2      0.00190582
         2         1         2         2         2         1      0.00365021
         2         1         2         2         2         2     -0.00207834
         2         1         3         3         1         1      0.00220004
         2         1         3         3         1         2      0.00190582
         2         1         3         3         2         1      0.00365021
         2         1         3         3         2         2     -0.00207834
         2         1         4         4         1         1      0.00111282
         2         1         5         5         1         1     -0.02653999
         2         1         5         5         1         2      0.00487195
         2         1         5         5         1         3      0.01261957
         2         1         5         5         1         4      0.00000000
         2         1         5         5         1         5     -0.00650650
         2         1         5         5         2         1      0.01299994
         2         1         5         5         2         2      0.00388003
         2         1         5         5         2         3     -0.00947938
         2         1         5         5         2         4      0.00000000
         2         1         5         5         2         5      0.00172339
         2         1         5         5         3         1      0.01162549
         2         1         5         5         3         2     -0.00532517
         2         1         5         5         3         3     -0.00146478
         2         1         5         5         3         4      0.00000000
         2         1         5         5         3         5      0.00108076
         2         1         5         5         4         1      0.00000000
         2         1         5         5         4         2      0.00000000
         2         1         5         5         4         3      0.00000000
         2         1         5         5         4         4      0.00186471
         2         1         5         5         4         5      0.00000000
         2         1         5         5         5         1     -0.01141033
         2         1         5         5         5         2      0.00346120
         2         1         5         5         5         3      0.00194795
         2         1         5         5         5         4      0.00000000
         2         1         5         5         5         5      0.00027205
         2         1         6         6         1         1      0.00980355
         2         1         6         6         1         2     -0.00092132
         2         1         6         6         1         3     -0.00576611
         2         1         6         6         2         1      0.00114068
         2         1         6         6         2         2      0.00062940
         2         1         6         6         2         3      0.00165753
         2         1         6         6         3         1     -0.01225098
         2         1         6         6         3         2      0.00330696
         2         1         6         6         3         3      0.00076251
         2         1         7         7         1         1      0.00980355
         2         1         7         7         1         2     -0.00092132
         2         1         7         7         1         3     -0.00576611
         2         1         7         7         2         1      0.00114068
         2         1         7         7         2         2      0.00062940
         2         1         7         7         2         3      0.00165753
         2         1         7         7         3         1     -0.01225098
         2         1         7         7         3         2      0.00330696
         2         1         7         7         3         3      0.00076251
         2         1         8         8         1         1      0.00186471
         2         2         1         1         1         1     -0.02112111
         2         2         1         1         1         2     -0.00434054
         2         2         1         1         1         3      0.00000000
         2         2         1         1         1         4     -0.00321121
         2         2         1         1         2         1     -0.00434054
         2         2         1         1         2         2     -0.00847277
         2         2         1         1         2         3     -0.00000000
         2         2         1         1         2         4      0.00709636
         2         2         1         1         3         1      0.00000000
         2         2         1         1         3         2     -0.00000000
         2         2         1         1         3         3     -0.00108420
         2         2         1         1         3         4     -0.00000000
         2         2         1         1         4         1     -0.00321121
         2         2         1         1         4         2      0.00709636
         2         2         1         1         4         3     -0.00000000
         2         2         1         1         4         4     -0.01219480
         2         2         2         2         1         1     -0.00221125
         2         2         2         2         1         2     -0.00317330
         2         2         2         2         2         1     -0.00317330
         2         2         2         2         2         2     -0.01360721
         2         2         3         3         1         1     -0.00221125
         2         2         3         3         1         2     -0.00317330
         2         2         3         3         2         1     -0.00317330
         2         2         3         3         2         2     -0.01360721
         2         2         4         4         1         1     -0.00108420
         2         2         5         5         1         1     -0.07939330
         2         2         5         5         1         2      0.02858115
         2         2         5         5         1         3      0.00014668
         2         2         5         5         1         4      0.00000000
         2         2         5         5         1         5      0.00193833
         2         2         5         5         2         1      0.02858115
         2         2         5         5         2         2     -0.02790256
         2         2         5         5         2         3      0.00252509
         2         2         5         5         2         4     -0.00000000
         2         2         5         5         2         5      0.00028515
         2         2         5         5         3         1      0.00014668
         2         2         5         5         3         2      0.00252509
         2         2         5         5         3         3     -0.00384274
         2         2         5         5         3         4     -0.00000000
         2         2         5         5         3         5      0.00397708
         2         2         5         5         4         1      0.00000000
         2         2         5         5         4         2     -0.00000000
         2         2         5         5         4         3     -0.00000000
         2         2         5         5         4         4     -0.00082848
         2         2         5         5         4         5     -0.00000000
         2         2         5         5         5         1      0.00193833
         2         2         5         5         5         2      0.00028515
         2         2         5         5         5         3      0.00397708
         2         2         5         5         5         4     -0.00000000
         2         2         5         5         5         5     -0.00579045
         2         2         6         6         1         1     -0.03407515
         2         2         6         6         1         2      0.00369297
         2         2         6         6         1         3      0.00938821
         2         2         6         6         2         1      0.00369297
         2         2         6         6         2         2     -0.00193619
         2         2         6         6         2         3     -0.00069720
         2         2         6         6         3         1      0.00938821
         2         2         6         6         3         2     -0.00069720
         2         2         6         6         3         3     -0.00631596
         2         2         7         7         1         1     -0.03407515
         2         2         7         7         1         2      0.00369297
         2         2         7         7         1         3      0.00938821
         2         2         7         7         2         1      0.00369297
         2         2         7         7         2         2     -0.00193619
         2         2         7         7         2         3     -0.00069720
         2         2         7         7         3         1      0.00938821
         2         2         7         7         3         2     -0.00069720
         2         2         7         7         3         3     -0.00631596
         2         2         8         8         1         1     -0.00082848
         3         3         1         1         1         1     -0.00325072
         3         3         1         1         1         2      0.00261687
         3         3         1         1         1         3     -0.00105746
         3         3         1         1         1         4      0.00133027
         3         3         1         1         2         1      0.00261687
         3         3         1         1         2         2     -0.00842552
         3         3         1         1         2         3     -0.00396786
         3         3         1         1         2         4     -0.00002643
         3         3         1         1         3         1     -0.00105746
         3         3         1         1         3         2     -0.00396786
         3         3         1         1         3         3     -0.00838861
         3         3         1         1         3         4      0.00321825
         3         3         1         1         4         1      0.00133027
         3         3         1         1         4         2     -0.00002643
         3         3         1         1         4         3      0.00321825
         3         3         1         1         4         4     -0.00260924
         3         3         2         2         1         1     -0.01807730
         3         3         2         2         1         2      0.00137437
         3         3         2         2         2         1      0.00137437
         3         3         2         2         2         2     -0.01073144
         3         3         3         3         1         1     -0.00081517
         3         3         3         3         1         2     -0.00008557
         3         3         3         3         2         1     -0.00008557
         3         3         3         3         2         2     -0.00070903
         3         3         4         4         1         1     -0.00838861
         3         3         5         5         1         1     -0.02348607
         3         3         5         5         1         2      0.00286706
         3         3         5         5         1         3      0.00114810
         3         3         5         5         1         4     -0.00532556
         3         3         5         5         1         5      0.00078168
         3         3         5         5         2         1      0.00286706
         3         3         5         5         2         2     -0.00157991
         3         3         5         5         2         3      0.00095357
         3         3         5         5         2         4     -0.00023191
         3         3         5         5         2         5      0.00056332
         3         3         5         5         3         1      0.00114810
         3         3         5         5         3         2      0.00095357
         3         3         5         5         3         3     -0.00334104
         3         3         5         5         3         4     -0.00065391
         3         3         5         5         3         5     -0.00034580
         3         3         5         5         4         1     -0.00532556
         3         3         5         5         4         2     -0.00023191
         3         3         5         5         4         3     -0.00065391
         3         3         5         5         4         4     -0.00535404
         3         3         5         5         4         5      0.00182029
         3         3         5         5         5         1      0.00078168
         3         3         5         5         5         2      0.00056332
         3         3         5         5         5         3     -0.00034580
         3         3         5         5         5         4      0.00182029
         3         3         5         5         5         5     -0.00100368
         3         3         6         6         1         1     -0.22796894
         3         3         6         6         1         2      0.03183844
         3         3         6         6         1         3     -0.00486740
         3         3         6         6         2         1      0.03183844
         3         3         6         6         2         2     -0.01292840
         3         3         6         6         2         3      0.00140067
         3         3         6         6         3         1     -0.00486740
         3         3         6         6         3         2      0.00140067
         3         3         6         6         3         3     -0.00438893
         3         3         7         7         1         1     -0.03478483
         3         3         7         7         1         2      0.00371626
         3         3         7         7         1         3     -0.00101762
         3         3         7         7         2         1      0.00371626
         3         3         7         7         2         2     -0.00061651
         3         3         7         7         2         3      0.00005310
         3         3         7         7         3         1     -0.00101762
         3         3         7         7         3         2      0.00005310
         3         3         7         7         3         3     -0.00020071
         3         3         8         8         1         1     -0.00535404
         4         4         1         1         1         1     -0.00325072
         4         4         1         1         1         2      0.00261687
         4         4         1         1         1         3      0.00105746
         4         4         1         1         1         4      0.00133027
         4         4         1         1         2         1      0.00261687
         4         4         1         1         2         2     -0.00842552
         4         4         1         1         2         3      0.00396786
         4         4         1         1         2         4     -0.00002643
         4         4         1         1         3         1      0.00105746
         4         4         1         1         3         2      0.00396786
         4         4         1         1         3         3     -0.00838861
         4         4         1         1         3         4     -0.00321825
         4         4         1         1         4         1      0.00133027
         4         4         1         1         4         2     -0.00002643
         4         4         1         1         4         3     -0.00321825
         4         4         1         1         4         4     -0.00260924
         4         4         2         2         1         1     -0.00081517
         4         4         2         2         1         2     -0.00008557
         4         4         2         2         2         1     -0.00008557
         4         4         2         2         2         2     -0.00070903
         4         4         3         3         1         1     -0.01807730
         4         4         3         3         1         2      0.00137437
         4         4         3         3         2         1      0.00137437
         4         4         3         3         2         2     -0.01073144
         4         4         4         4         1         1     -0.00838861
         4         4         5         5         1         1     -0.02348607
         4         4         5         5         1         2      0.00286706
         4         4         5         5         1         3      0.00114810
         4         4         5         5         1         4      0.00532556
         4         4         5         5         1         5      0.00078168
         4         4         5         5         2         1      0.00286706
         4         4         5         5         2         2     -0.00157991
         4         4         5         5         2         3      0.00095357
         4         4         5         5         2         4      0.00023191
         4         4         5         5         2         5      0.00056332
         4         4         5         5         3         1      0.00114810
         4         4         5         5         3         2      0.00095357
         4         4         5         5         3         3     -0.00334104
         4         4         5         5         3         4      0.00065391
         4         4         5         5         3         5     -0.00034580
         4         4         5         5         4         1      0.00532556
         4         4         5         5         4         2      0.00023191
         4         4         5         5         4         3      0.00065391
         4         4         5         5         4         4     -0.00535404
         4         4         5         5         4         5     -0.00182029
         4         4         5         5         5         1      0.00078168
         4         4         5         5         5         2      0.00056332
         4         4         5         5         5         3     -0.00034580
         4         4         5         5         5         4     -0.00182029
         4         4         5         5         5         5     -0.00100368
         4         4         6         6         1         1     -0.03478483
         4         4         6         6         1         2      0.00371626
         4         4         6         6         1         3     -0.00101762
         4         4         6         6         2         1      0.00371626
         4         4         6         6         2         2     -0.00061651
         4         4         6         6         2         3      0.00005310
         4         4         6         6         3         1     -0.00101762
         4         4         6         6         3         2      0.00005310
         4         4         6         6         3         3     -0.00020071
         4         4         7         7         1         1     -0.22796894
         4         4         7         7         1         2      0.03183844
         4         4         7         7         1         3     -0.00486740
         4         4         7         7         2         1      0.03183844
         4         4         7         7         2         2     -0.01292840
         4         4         7         7         2         3      0.00140067
         4         4         7         7         3         1     -0.00486740
         4         4         7         7         3         2      0.00140067
         4         4         7         7         3         3     -0.00438893
         4         4         8         8         1         1     -0.00535404
         5         5         1         1         1         1     -0.01460199
         5         5         1         1         1         2      0.00315445
         5         5         1         1         1         3      0.00000000
         5         5         1         1         1         4     -0.00027845
         5         5         1         1         2         1      0.00315445
         5         5         1         1         2         2     -0.00319862
         5         5         1         1         2         3     -0.00000000
         5         5         1         1         2         4      0.00157665
         5         5         1         1         3         1      0.00000000
         5         5         1         1         3         2     -0.00000000
         5         5         1         1         3         3     -0.00654386
         5         5         1         1         3         4     -0.00000000
         5         5         1         1         4         1     -0.00027845
         5         5         1         1         4         2      0.00157665
         5         5         1         1         4         3     -0.00000000
         5         5         1         1         4         4     -0.00752651
         5         5         2         2         1         1     -0.00723978
         5         5         2         2         1         2     -0.00303822
         5         5         2         2         2         1     -0.00303822
         5         5         2         2         2         2     -0.00809255
         5         5         3         3         1         1     -0.00723978
         5         5         3         3         1         2     -0.00303822
         5         5         3         3         2         1     -0.00303822
         5         5         3         3         2         2     -0.00809255
         5         5         4         4         1         1     -0.00654386
         5         5         5         5         1         1     -0.02583002
         5         5         5         5         1         2      0.00566089
         5         5         5         5         1         3      0.00016795
         5         5         5         5         1         4     -0.00000000
         5         5         5         5         1         5      0.00518209
         5         5         5         5         2         1      0.00566089
         5         5         5         5         2         2     -0.01371135
         5         5         5         5         2         3      0.00619358
         5         5         5         5         2         4      0.00000000
         5         5         5         5         2         5     -0.00035900
         5         5         5         5         3         1      0.00016795
         5         5         5         5         3         2      0.00619358
         5         5         5         5         3         3     -0.00640305
         5         5         5         5         3         4      0.00000000
         5         5         5         5         3         5      0.00082429
         5         5         5         5         4         1     -0.00000000
         5         5         5         5         4         2      0.00000000
         5         5         5         5         4         3      0.00000000
         5         5         5         5         4         4     -0.00542876
         5         5         5         5         4         5      0.00000000
         5         5         5         5         5         1      0.00518209
         5         5         5         5         5         2     -0.00035900
         5         5         5         5         5         3      0.00082429
         5         5         5         5         5         4      0.00000000
         5         5         5         5         5         5     -0.00397024
         5         5         6         6         1         1     -0.04387056
         5         5         6         6         1         2      0.00999470
         5         5         6         6         1         3      0.00654349
         5         5         6         6         2         1      0.00999470
         5         5         6         6         2         2     -0.00570212
         5         5         6         6         2         3     -0.00091885
         5         5         6         6         3         1      0.00654349
         5         5         6         6         3         2     -0.00091885
         5         5         6         6         3         3     -0.00527249
         5         5         7         7         1         1     -0.04387056
         5         5         7         7         1         2      0.00999470
         5         5         7         7         1         3      0.00654349
         5         5         7         7         2         1      0.00999470
         5         5         7         7         2         2     -0.00570212
         5         5         7         7         2         3     -0.00091885
         5         5         7         7         3         1      0.00654349
         5         5         7         7         3         2     -0.00091885
         5         5         7         7         3         3     -0.00527249
         5         5         8         8         1         1     -0.00542876
         3         1         1         2         1         1      0.00464437
         3         1         1         2         1         2      0.00071238
         3         1         1         2         2         1     -0.00435626
         3         1         1         2         2         2     -0.00183651
         3         1         1         2         3         1      0.00284399
         3         1         1         2         3         2     -0.00230786
         3         1         1         2         4         1     -0.00285147
         3         1         1         2         4         2     -0.00043244
         3         1         2         1         1         1      0.00926498
         3         1         2         1         1         2     -0.01216255
         3         1         2         1         1         3      0.00115263
         3         1         2         1         1         4     -0.00325029
         3         1         2         1         2         1      0.00166608
         3         1         2         1         2         2      0.00215385
         3         1         2         1         2         3     -0.00036549
         3         1         2         1         2         4     -0.00274660
         3         1         3         4         1         1      0.00115263
         3         1         3         4         2         1     -0.00036549
         3         1         4         3         1         1      0.00284399
         3         1         4         3         1         2     -0.00230786
         3         1         5         6         1         1     -0.03060809
         3         1         5         6         1         2      0.00902201
         3         1         5         6         1         3     -0.00749760
         3         1         5         6         2         1      0.00031464
         3         1         5         6         2         2      0.00113852
         3         1         5         6         2         3      0.00208526
         3         1         5         6         3         1      0.00098188
         3         1         5         6         3         2     -0.00352573
         3         1         5         6         3         3      0.00033239
         3         1         5         6         4         1     -0.01517138
         3         1         5         6         4         2      0.00361418
         3         1         5         6         4         3     -0.00108968
         3         1         5         6         5         1      0.00525047
         3         1         5         6         5         2     -0.00155617
         3         1         5         6         5         3     -0.00031959
         3         1         6         5         1         1     -0.03122618
         3         1         6         5         1         2      0.00023555
         3         1         6         5         1         3      0.00661603
         3         1         6         5         1         4     -0.00847705
         3         1         6         5         1         5      0.00250590
         3         1         6         5         2         1      0.01527053
         3         1         6         5         2         2      0.00097806
         3         1         6         5         2         3     -0.00844678
         3         1         6         5         2         4      0.00166924
         3         1         6         5         2         5     -0.00046427
         3         1         6         5         3         1     -0.01125602
         3         1         6         5         3         2      0.00390579
         3         1         6         5         3         3      0.00079760
         3         1         6         5         3         4     -0.00056554
         3         1         6         5         3         5     -0.00082552
         3         1         7         8         1         1     -0.00847705
         3         1         7         8         2         1      0.00166924
         3         1         7         8         3         1     -0.00056554
         3         1         8         7         1         1     -0.01517138
         3         1         8         7         1         2      0.00361418
         3         1         8         7         1         3     -0.00108968
         3         2         1         2         1         1     -0.00371674
         3         2         1         2         1         2     -0.00146840
         3         2         1         2         2         1     -0.00067380
         3         2         1         2         2         2     -0.00263452
         3         2         1         2         3         1     -0.00212863
         3         2         1         2         3         2     -0.00858724
         3         2         1         2         4         1      0.00133080
         3         2         1         2         4         2      0.00159804
         3         2         2         1         1         1     -0.01537938
         3         2         2         1         1         2     -0.00590771
         3         2         2         1         1         3     -0.00109752
         3         2         2         1         1         4     -0.00076386
         3         2         2         1         2         1      0.00014274
         3         2         2         1         2         2      0.00562560
         3         2         2         1         2         3     -0.00199130
         3         2         2         1         2         4     -0.00802004
         3         2         3         4         1         1     -0.00109752
         3         2         3         4         2         1     -0.00199130
         3         2         4         3         1         1     -0.00212863
         3         2         4         3         1         2     -0.00858724
         3         2         5         6         1         1     -0.02374719
         3         2         5         6         1         2      0.00470401
         3         2         5         6         1         3     -0.00257286
         3         2         5         6         2         1      0.01119183
         3         2         5         6         2         2     -0.00451770
         3         2         5         6         2         3     -0.00084140
         3         2         5         6         3         1      0.00357216
         3         2         5         6         3         2      0.00135566
         3         2         5         6         3         3      0.00059993
         3         2         5         6         4         1      0.00745168
         3         2         5         6         4         2     -0.00008600
         3         2         5         6         4         3     -0.00453966
         3         2         5         6         5         1     -0.00503148
         3         2         5         6         5         2      0.00108664
         3         2         5         6         5         3      0.00089191
         3         2         6         5         1         1     -0.06087840
         3         2         6         5         1         2      0.02393540
         3         2         6         5         1         3      0.00193156
         3         2         6         5         1         4      0.00389184
         3         2         6         5         1         5     -0.00376323
         3         2         6         5         2         1      0.01394422
         3         2         6         5         2         2     -0.01446390
         3         2         6         5         2         3      0.00051685
         3         2         6         5         2         4     -0.00036614
         3         2         6         5         2         5      0.00284132
         3         2         6         5         3         1      0.00215837
         3         2         6         5         3         2     -0.00145815
         3         2         6         5         3         3      0.00308647
         3         2         6         5         3         4     -0.00101680
         3         2         6         5         3         5     -0.00311380
         3         2         7         8         1         1      0.00389184
         3         2         7         8         2         1     -0.00036614
         3         2         7         8         3         1     -0.00101680
         3         2         8         7         1         1      0.00745168
         3         2         8         7         1         2     -0.00008600
         3         2         8         7         1         3     -0.00453966
         4         1         1         3         1         1      0.00464437
         4         1         1         3         1         2      0.00071238
         4         1         1         3         2         1     -0.00435626
         4         1         1         3         2         2     -0.00183651
         4         1         1         3         3         1     -0.00284399
         4         1         1         3         3         2      0.00230786
         4         1         1         3         4         1     -0.00285147
         4         1         1         3         4         2     -0.00043244
         4         1         2         4         1         1      0.00115263
         4         1         2         4         2         1     -0.00036549
         4         1         3         1         1         1      0.00926498
         4         1         3         1         1         2     -0.01216255
         4         1         3         1         1         3     -0.00115263
         4         1         3         1         1         4     -0.00325029
         4         1         3         1         2         1      0.00166608
         4         1         3         1         2         2      0.00215385
         4         1         3         1         2         3      0.00036549
         4         1         3         1         2         4     -0.00274660
         4         1         4         2         1         1      0.00284399
         4         1         4         2         1         2     -0.00230786
         4         1         5         7         1         1     -0.03060809
         4         1         5         7         1         2      0.00902201
         4         1         5         7         1         3     -0.00749760
         4         1         5         7         2         1      0.00031464
         4         1         5         7         2         2      0.00113852
         4         1         5         7         2         3      0.00208526
         4         1         5         7         3         1      0.00098188
         4         1         5         7         3         2     -0.00352573
         4         1         5         7         3         3      0.00033239
         4         1         5         7         4         1      0.01517138
         4         1         5         7         4         2     -0.00361418
         4         1         5         7         4         3      0.00108968
         4         1         5         7         5         1      0.00525047
         4         1         5         7         5         2     -0.00155617
         4         1         5         7         5         3     -0.00031959
         4         1         6         8         1         1     -0.00847705
         4         1         6         8         2         1      0.00166924
         4         1         6         8         3         1     -0.00056554
         4         1         7         5         1         1     -0.03122618
         4         1         7         5         1         2      0.00023555
         4         1         7         5         1         3      0.00661603
         4         1         7         5         1         4      0.00847705
         4         1         7         5         1         5      0.00250590
         4         1         7         5         2         1      0.01527053
         4         1         7         5         2         2      0.00097806
         4         1         7         5         2         3     -0.00844678
         4         1         7         5         2         4     -0.00166924
         4         1         7         5         2         5     -0.00046427
         4         1         7         5         3         1     -0.01125602
         4         1         7         5         3         2      0.00390579
         4         1         7         5         3         3      0.00079760
         4         1         7         5         3         4      0.00056554
         4         1         7         5         3         5     -0.00082552
         4         1         8         6         1         1     -0.01517138
         4         1         8         6         1         2      0.00361418
         4         1         8         6         1         3     -0.00108968
         4         2         1         3         1         1     -0.00371674
         4         2         1         3         1         2     -0.00146840
         4         2         1         3         2         1     -0.00067380
         4         2         1         3         2         2     -0.00263452
         4         2         1         3         3         1      0.00212863
         4         2         1         3         3         2      0.00858724
         4         2         1         3         4         1      0.00133080
         4         2         1         3         4         2      0.00159804
         4         2         2         4         1         1     -0.00109752
         4         2         2         4         2         1     -0.00199130
         4         2         3         1         1         1     -0.01537938
         4         2         3         1         1         2     -0.00590771
         4         2         3         1         1         3      0.00109752
         4         2         3         1         1         4     -0.00076386
         4         2         3         1         2         1      0.00014274
         4         2         3         1         2         2      0.00562560
         4         2         3         1         2         3      0.00199130
         4         2         3         1         2         4     -0.00802004
         4         2         4         2         1         1     -0.00212863
         4         2         4         2         1         2     -0.00858724
         4         2         5         7         1         1     -0.02374719
         4         2         5         7         1         2      0.00470401
         4         2         5         7         1         3     -0.00257286
         4         2         5         7         2         1      0.01119183
         4         2         5         7         2         2     -0.00451770
         4         2         5         7         2         3     -0.00084140
         4         2         5         7         3         1      0.00357216
         4         2         5         7         3         2      0.00135566
         4         2         5         7         3         3      0.00059993
         4         2         5         7         4         1     -0.00745168
         4         2         5         7         4         2      0.00008600
         4         2         5         7         4         3      0.00453966
         4         2         5         7         5         1     -0.00503148
         4         2         5         7         5         2      0.00108664
         4         2         5         7         5         3      0.00089191
         4         2         6         8         1         1      0.00389184
         4         2         6         8         2         1     -0.00036614
         4         2         6         8         3         1     -0.00101680
         4         2         7         5         1         1     -0.06087840
         4         2         7         5         1         2      0.02393540
         4         2         7         5         1         3      0.00193156
         4         2         7         5         1         4     -0.00389184
         4         2         7         5         1         5     -0.00376323
         4         2         7         5         2         1      0.01394422
         4         2         7         5         2         2     -0.01446390
         4         2         7         5         2         3      0.00051685
         4         2         7         5         2         4      0.00036614
         4         2         7         5         2         5      0.00284132
         4         2         7         5         3         1      0.00215837
         4         2         7         5         3         2     -0.00145815
         4         2         7         5         3         3      0.00308647
         4         2         7         5         3         4      0.00101680
         4         2         7         5         3         5     -0.00311380
         4         2         8         6         1         1      0.00745168
         4         2         8         6         1         2     -0.00008600
         4         2         8         6         1         3     -0.00453966
         4         3         1         4         1         1     -0.00105746
         4         3         1         4         2         1     -0.00396786
         4         3         1         4         3         1      0.00607207
         4         3         1         4         4         1      0.00321825
         4         3         2         3         1         1     -0.00121858
         4         3         2         3         1         2      0.00022440
         4         3         2         3         2         1      0.00022440
         4         3         2         3         2         2     -0.00123487
         4         3         3         2         1         1     -0.01604356
         4         3         3         2         1         2      0.00123554
         4         3         3         2         2         1      0.00123554
         4         3         3         2         2         2     -0.00878753
         4         3         4         1         1         1     -0.00105746
         4         3         4         1         1         2     -0.00396786
         4         3         4         1         1         3     -0.00607207
         4         3         4         1         1         4      0.00321825
         4         3         5         8         1         1     -0.00532556
         4         3         5         8         2         1     -0.00023191
         4         3         5         8         3         1     -0.00065391
         4         3         5         8         4         1      0.00390155
         4         3         5         8         5         1      0.00182029
         4         3         6         7         1         1     -0.08490634
         4         3         6         7         1         2      0.01024587
         4         3         6         7         1         3     -0.00264484
         4         3         6         7         2         1      0.01024587
         4         3         6         7         2         2     -0.00194983
         4         3         6         7         2         3      0.00037594
         4         3         6         7         3         1     -0.00264484
         4         3         6         7         3         2      0.00037594
         4         3         6         7         3         3     -0.00075251
         4         3         7         6         1         1     -0.10827776
         4         3         7         6         1         2      0.01787631
         4         3         7         6         1         3     -0.00120494
         4         3         7         6         2         1      0.01787631
         4         3         7         6         2         2     -0.01036206
         4         3         7         6         2         3      0.00097163
         4         3         7         6         3         1     -0.00120494
         4         3         7         6         3         2      0.00097163
         4         3         7         6         3         3     -0.00343571
         4         3         8         5         1         1     -0.00532556
         4         3         8         5         1         2     -0.00023191
         4         3         8         5         1         3     -0.00065391
         4         3         8         5         1         4     -0.00390155
         4         3         8         5         1         5      0.00182029
         5         1         1         5         1         1     -0.00389015
         5         1         1         5         1         2     -0.00506053
         5         1         1         5         1         3      0.00570514
         5         1         1         5         1         4      0.00000000
         5         1         1         5         1         5      0.00086932
         5         1         1         5         2         1      0.00580855
         5         1         1         5         2         2     -0.00107174
         5         1         1         5         2         3     -0.00506205
         5         1         1         5         2         4     -0.00000000
         5         1         1         5         2         5      0.00154785
         5         1         1         5         3         1      0.00000000
         5         1         1         5         3         2     -0.00000000
         5         1         1         5         3         3     -0.00000000
         5         1         1         5         3         4     -0.00556714
         5         1         1         5         3         5     -0.00000000
         5         1         1         5         4         1      0.00846213
         5         1         1         5         4         2     -0.00195664
         5         1         1         5         4         3     -0.00004043
         5         1         1         5         4         4     -0.00000000
         5         1         1         5         4         5     -0.00294049
         5         1         2         6         1         1      0.01235132
         5         1         2         6         1         2     -0.00617635
         5         1         2         6         1         3     -0.00005819
         5         1         2         6         2         1      0.00515481
         5         1         2         6         2         2     -0.00009100
         5         1         2         6         2         3     -0.00444883
         5         1         3         7         1         1      0.01235132
         5         1         3         7         1         2     -0.00617635
         5         1         3         7         1         3     -0.00005819
         5         1         3         7         2         1      0.00515481
         5         1         3         7         2         2     -0.00009100
         5         1         3         7         2         3     -0.00444883
         5         1         4         8         1         1     -0.00556714
         5         1         5         1         1         1     -0.00042925
         5         1         5         1         1         2      0.00691700
         5         1         5         1         1         3      0.00000000
         5         1         5         1         1         4      0.00307149
         5         1         5         1         2         1     -0.00740022
         5         1         5         1         2         2      0.00152388
         5         1         5         1         2         3     -0.00000000
         5         1         5         1         2         4      0.00066747
         5         1         5         1         3         1      0.00444827
         5         1         5         1         3         2     -0.00786928
         5         1         5         1         3         3     -0.00000000
         5         1         5         1         3         4      0.00065897
         5         1         5         1         4         1      0.00000000
         5         1         5         1         4         2     -0.00000000
         5         1         5         1         4         3     -0.00639283
         5         1         5         1         4         4     -0.00000000
         5         1         5         1         5         1      0.00106013
         5         1         5         1         5         2      0.00141666
         5         1         5         1         5         3     -0.00000000
         5         1         5         1         5         4     -0.00428517
         5         1         6         2         1         1      0.01054890
         5         1         6         2         1         2     -0.00086664
         5         1         6         2         2         1     -0.00607346
         5         1         6         2         2         2      0.00149196
         5         1         6         2         3         1     -0.00107568
         5         1         6         2         3         2     -0.00604740
         5         1         7         3         1         1      0.01054890
         5         1         7         3         1         2     -0.00086664
         5         1         7         3         2         1     -0.00607346
         5         1         7         3         2         2      0.00149196
         5         1         7         3         3         1     -0.00107568
         5         1         7         3         3         2     -0.00604740
         5         1         8         4         1         1     -0.00639283
         5         2         1         5         1         1     -0.01148776
         5         2         1         5         1         2      0.01892410
         5         2         1         5         1         3     -0.00360432
         5         2         1         5         1         4     -0.00000000
         5         2         1         5         1         5      0.00024340
         5         2         1         5         2         1      0.01144277
         5         2         1         5         2         2     -0.00575725
         5         2         1         5         2         3     -0.00050737
         5         2         1         5         2         4      0.00000000
         5         2         1         5         2         5     -0.00042121
         5         2         1         5         3         1     -0.00000000
         5         2         1         5         3         2      0.00000000
         5         2         1         5         3         3      0.00000000
         5         2         1         5         3         4      0.00228979
         5         2         1         5         3         5      0.00000000
         5         2         1         5         4         1     -0.00628938
         5         2         1         5         4         2      0.00204568
         5         2         1         5         4         3     -0.00336233
         5         2         1         5         4         4      0.00000000
         5         2         1         5         4         5      0.00512162
         5         2         2         6         1         1     -0.00751510
         5         2         2         6         1         2      0.00240724
         5         2         2         6         1         3      0.00444760
         5         2         2         6         2         1     -0.01308691
         5         2         2         6         2         2      0.00182294
         5         2         2         6         2         3      0.00543078
         5         2         3         7         1         1     -0.00751510
         5         2         3         7         1         2      0.00240724
         5         2         3         7         1         3      0.00444760
         5         2         3         7         2         1     -0.01308691
         5         2         3         7         2         2      0.00182294
         5         2         3         7         2         3      0.00543078
         5         2         4         8         1         1      0.00228979
         5         2         5         1         1         1      0.00010982
         5         2         5         1         1         2      0.01433008
         5         2         5         1         1         3     -0.00000000
         5         2         5         1         1         4     -0.01526599
         5         2         5         1         2         1      0.01676633
         5         2         5         1         2         2     -0.00159665
         5         2         5         1         2         3      0.00000000
         5         2         5         1         2         4      0.00683689
         5         2         5         1         3         1     -0.00867117
         5         2         5         1         3         2     -0.00370419
         5         2         5         1         3         3      0.00000000
         5         2         5         1         3         4     -0.00314038
         5         2         5         1         4         1     -0.00000000
         5         2         5         1         4         2      0.00000000
         5         2         5         1         4         3      0.00223080
         5         2         5         1         4         4      0.00000000
         5         2         5         1         5         1     -0.00025603
         5         2         5         1         5         2     -0.00101221
         5         2         5         1         5         3      0.00000000
         5         2         5         1         5         4      0.00346699
         5         2         6         2         1         1     -0.00755627
         5         2         6         2         1         2     -0.02308987
         5         2         6         2         2         1      0.00270145
         5         2         6         2         2         2      0.00406423
         5         2         6         2         3         1      0.00265492
         5         2         6         2         3         2      0.00394302
         5         2         7         3         1         1     -0.00755627
         5         2         7         3         1         2     -0.02308987
         5         2         7         3         2         1      0.00270145
         5         2         7         3         2         2      0.00406423
         5         2         7         3         3         1      0.00265492
         5         2         7         3         3         2      0.00394302
         5         2         8         4         1         1      0.00223080
         5         3         1         6         1         1     -0.01548601
         5         3         1         6         1         2      0.01229851
         5         3         1         6         1         3      0.00202038
         5         3         1         6         2         1      0.00557275
         5         3         1         6         2         2     -0.00552405
         5         3         1         6         2         3     -0.00072135
         5         3         1         6         3         1     -0.01028991
         5         3         1         6         3         2      0.00181569
         5         3         1         6         3         3      0.00003501
         5         3         1         6         4         1      0.00871732
         5         3         1         6         4         2     -0.00330782
         5         3         1         6         4         3      0.00283297
         5         3         2         5         1         1      0.00567025
         5         3         2         5         1         2      0.00300728
         5         3         2         5         1         3     -0.00386752
         5         3         2         5         1         4      0.00410263
         5         3         2         5         1         5     -0.00227858
         5         3         2         5         2         1     -0.00527592
         5         3         2         5         2         2      0.00249061
         5         3         2         5         2         3      0.00078106
         5         3         2         5         2         4      0.00293306
         5         3         2         5         2         5     -0.00131357
         5         3         3         8         1         1      0.00410263
         5         3         3         8         2         1      0.00293306
         5         3         4         7         1         1     -0.01028991
         5         3         4         7         1         2      0.00181569
         5         3         4         7         1         3      0.00003501
         5         3         5         2         1         1      0.00621828
         5         3         5         2         1         2     -0.01681144
         5         3         5         2         2         1      0.01075613
         5         3         5         2         2         2      0.00488788
         5         3         5         2         3         1     -0.01097627
         5         3         5         2         3         2      0.00032589
         5         3         5         2         4         1      0.00165257
         5         3         5         2         4         2      0.00053776
         5         3         5         2         5         1     -0.00217172
         5         3         5         2         5         2      0.00029620
         5         3         6         1         1         1     -0.00939635
         5         3         6         1         1         2     -0.00431981
         5         3         6         1         1         3     -0.02082037
         5         3         6         1         1         4      0.01323953
         5         3         6         1         2         1      0.00615171
         5         3         6         1         2         2     -0.00308583
         5         3         6         1         2         3      0.00356078
         5         3         6         1         2         4     -0.00299798
         5         3         6         1         3         1      0.00124114
         5         3         6         1         3         2     -0.00069770
         5         3         6         1         3         3      0.00078343
         5         3         6         1         3         4     -0.00008417
         5         3         7         4         1         1     -0.02082037
         5         3         7         4         2         1      0.00356078
         5         3         7         4         3         1      0.00078343
         5         3         8         3         1         1      0.00165257
         5         3         8         3         1         2      0.00053776
         5         4         1         7         1         1     -0.01548601
         5         4         1         7         1         2      0.01229851
         5         4         1         7         1         3      0.00202038
         5         4         1         7         2         1      0.00557275
         5         4         1         7         2         2     -0.00552405
         5         4         1         7         2         3     -0.00072135
         5         4         1         7         3         1      0.01028991
         5         4         1         7         3         2     -0.00181569
         5         4         1         7         3         3     -0.00003501
         5         4         1         7         4         1      0.00871732
         5         4         1         7         4         2     -0.00330782
         5         4         1         7         4         3      0.00283297
         5         4         2         8         1         1      0.00410263
         5         4         2         8         2         1      0.00293306
         5         4         3         5         1         1      0.00567025
         5         4         3         5         1         2      0.00300728
         5         4         3         5         1         3     -0.00386752
         5         4         3         5         1         4     -0.00410263
         5         4         3         5         1         5     -0.00227858
         5         4         3         5         2         1     -0.00527592
         5         4         3         5         2         2      0.00249061
         5         4         3         5         2         3      0.00078106
         5         4         3         5         2         4     -0.00293306
         5         4         3         5         2         5     -0.00131357
         5         4         4         6         1         1     -0.01028991
         5         4         4         6         1         2      0.00181569
         5         4         4         6         1         3      0.00003501
         5         4         5         3         1         1      0.00621828
         5         4         5         3         1         2     -0.01681144
         5         4         5         3         2         1      0.01075613
         5         4         5         3         2         2      0.00488788
         5         4         5         3         3         1     -0.01097627
         5         4         5         3         3         2      0.00032589
         5         4         5         3         4         1     -0.00165257
         5         4         5         3         4         2     -0.00053776
         5         4         5         3         5         1     -0.00217172
         5         4         5         3         5         2      0.00029620
         5         4         6         4         1         1     -0.02082037
         5         4         6         4         2         1      0.00356078
         5         4         6         4         3         1      0.00078343
         5         4         7         1         1         1     -0.00939635
         5         4         7         1         1         2     -0.00431981
         5         4         7         1         1         3      0.02082037
         5         4         7         1         1         4      0.01323953
         5         4         7         1         2         1      0.00615171
         5         4         7         1         2         2     -0.00308583
         5         4         7         1         2         3     -0.00356078
         5         4         7         1         2         4     -0.00299798
         5         4         7         1         3         1      0.00124114
         5         4         7         1         3         2     -0.00069770
         5         4         7         1         3         3     -0.00078343
         5         4         7         1         3         4     -0.00008417
         5         4         8         2         1         1      0.00165257
         5         4         8         2         1         2      0.00053776


 RESULTS
 =======

  Reference energy                   -108.606225806201
  CCD singlet pair energy              -0.320766282633
  CCD triplet pair energy              -0.103896015928
  CCD correlation energy               -0.424662298561

 !CCD total energy                   -109.030888104762

 Timing summary (sec):

 STEP                 CPU(USER)    SYS     CPU(TOT)    WALL
 Transformation          0.01      0.00      0.01      0.01
 CCSD iterations         0.09      0.02      0.11      0.10

 Program statistics:

 Available memory in ccsd:                39999100
 Min. memory needed in ccsd:                  4777
 Max. memory used in ccsd:                    5237
 Max. memory used in cckext:                 37650 (25 integral passes)



 **********************************************************************************************************************************
 DATASETS  * FILE   NREC   LENGTH (MB)   RECORD NAMES
              1      20       30.10       500      700      610      900      950      970     1000      129      960     1100   
                                          VAR     GEOM    BASINP   SYMINP    ZMAT    AOBASIS   BASIS     P2S    ABASIS      S 
                                         1400     1410     1200     1210     1080     1600     1650     1300     1700     1380   
                                           T        V       H0       H01     AOSYM     SMH    MOLCAS    ERIS     OPER     JKOP   

              3       5       14.77       500      610      700     1000     2100   
                                          VAR    BASINP    GEOM     BASIS     RHF  

 PROGRAMS   *        TOTAL      CCSD       INT   RESTART
 CPU TIMES  *         0.47      0.17      0.18      0.02
 REAL TIME  *         0.68 SEC
 DISK USED  *        49.46 MB
 **********************************************************************************************************************************
 Molecular orbitals read from record     2100.3  Type=RHF/CANONICAL (state 1.1)
 Occupation numbers read from record     2100.3  Type=RHF/RHF (state 1.1)
 Orbital energies read from record       2100.3  Type=RHF/CANONICAL (state 1.1)
 Redundancy group numbers read from rec  2100.3  Type=RHF/RHF (state 1.1)

 CCSD/cc-pVDZ energy=   -109.030888104762

            CCSD
   -109.03088810
 **********************************************************************************************************************************
 Molpro calculation terminated
