
 Primary working directories    : /scr/yuriaoto/job.023589/molpro.zQRwZqYqFM
 Secondary working directories  : /scr/yuriaoto/job.023589/molpro.zQRwZqYqFM
 Wavefunction directory         : /scr/yuriaoto/job.023589/
 Main file repository           : /scr/yuriaoto/job.023589/molpro.zQRwZqYqFM/

 id        : yuriaoto

 Nodes             nprocs
 t-rex.ufabc.int.br    1

 Using customized tuning parameters: mindgm=8; mindgv=16; mindgc=1; mindgr=1; noblas=0; minvec=7
 default implementation of scratch files=df  


 Variables initialized (933), CPU time= 0.01 sec
 ***,
 memory,40,m
 gprint,orbital,basis,civector
 gthresh,thrprint=0,printci=0.0
 file,3,wfu.dat,old
 
 {ccsd,CC_NORM_MAX=10.0
 nosingle
 thresh,printci=0.0,ENERGY=1.0E-10,COEFF=1.0E-12
 print,ref=1
 core,0
 wf,14,1,0;
 }
 
 Commands  initialized (760), CPU time= 0.00 sec, 617 directives.
 Default parameters read. Elapsed time= 0.04 sec

 Checking input...
 Passed
1


                                         ***  PROGRAM SYSTEM MOLPRO  ***
                                       Copyright, TTI GmbH Stuttgart, 2015
                                    Version 2019.2 linked Abr  7 2019 15:10:35


 **********************************************************************************************************************************
 LABEL *                                                                                 
  64 bit serial version                                                                  DATE: 05-Jun-20          TIME: 21:23:16  
 **********************************************************************************************************************************

 SHA1:             3a8a58c585c929645742fb5a1b7541a4ad1da699
 **********************************************************************************************************************************


 THRESHOLDS:

 ZERO    =  1.00D-12  ONEINT  =  1.00D-12  TWOINT  =  1.00D-11  PREFAC  =  1.00D-14  XXXXXX  =  1.00D-09  EORDER  =  1.00D-04
 ENERGY  =  0.00D+00  ETEST   =  0.00D+00  EDENS   =  0.00D+00  THRDEDEF=  1.00D-06  GRADIENT=  1.00D-02  STEP    =  1.00D-03
 ORBITAL =  1.00D-05  CIVEC   =  1.00D-05  COEFF   =  1.00D-04  PRINTCI =  0.00D+00  PUNCHCI =  9.90D+01  OPTGRAD =  3.00D-04
 OPTENERG=  1.00D-06  OPTSTEP =  3.00D-04  THRGRAD =  1.00D-10  COMPRESS=  1.00D-11  VARMIN  =  1.00D-07  VARMAX  =  1.00D-03
 THRDOUB =  0.00D+00  THRDIV  =  1.00D-05  THRRED  =  1.00D-07  THRPSP  =  1.00D+00  THRDC   =  1.00D-10  THRCS   =  1.00D-10
 THRNRM  =  1.00D-08  THREQ   =  0.00D+00  THRDE   =  1.00D+00  THRREF  =  1.00D-05  SPARFAC =  1.00D+00  THRDLP  =  1.00D-07
 THRDIA  =  1.00D-10  THRDLS  =  1.00D-07  THRGPS  =  0.00D+00  THRKEX  =  0.00D+00  THRDIS  =  2.00D-01  THRVAR  =  1.00D-10
 THRLOC  =  1.00D-06  THRGAP  =  1.00D-06  THRLOCT = -1.00D+00  THRGAPT = -1.00D+00  THRORB  =  1.00D-06  THRMLTP =  0.00D+00
 THRCPQCI=  1.00D-10  KEXTA   =  0.00D+00  THRCOARS=  0.00D+00  SYMTOL  =  1.00D-06  GRADTOL =  1.00D-06  THROVL  =  1.00D-08
 THRORTH =  1.00D-08  GRID    =  1.00D-06  GRIDMAX =  1.00D-03  DTMAX   =  0.00D+00  THROCCDE=  1.00D-01  THROCCDE=  1.00D-01
 THRPRINT=  0.00D+00


 Variable memory set to   40000000 words,  buffer space 



 Permanent file  3  wfu.dat  assigned.  Implementation=df    Size= 14.09 MB


 PROGRAM * RESTART 


 Reading variables from file 3

 _FNUC           =      0.00000000
 _BASIS          =    CC-PVDZ
 _NELEC          =     14.00000000
 _PROGRAM        =    RHF-SCF
 _DMX_SCF        =      0.00000000
 _DMY_SCF        =      0.00000000
 _DMZ_SCF        =      0.00000000
 _HOMO           =      1.20000000
 _EHOMO          =     -0.46392077
 _LUMO           =      1.60000000
 _ELUMO          =     -0.00944908
 _ENERGY         =   -108.60622581
 _ENERGY_METHOD  =    RHF
 _ENERGY_BASIS   =    cc-pVDZ
 _ENUC           =     16.33333333
 _EPS1(1:7)      =    -15.79676678    -1.19737912    -0.55506402     0.94628654     1.05507753     1.91447057
                        2.03771558
 _EPS2(1:3)      =     -0.46392077     0.91310838     1.72264736
 _EPS3(1:3)      =     -0.46392077     0.91310838     1.72264736
 _EPS4           =      1.91447057
 _EPS5(1:7)      =    -15.79614860    -0.90460729     0.23671206     0.86826039     1.39142551     2.07157051
                        3.02778440
 _EPS6(1:3)      =     -0.00944908     0.99822150     2.45091804
 _EPS7(1:3)      =     -0.00944908     0.99822150     2.45091804
 _EPS8           =      2.07157051
 _IPROC_MPP      =      0.00000000
 _IPROC_MPPX     =      0.00000000
 _ORBITAL        =   2100.30000000
 _STATUS         =      1.00000000
 _DATE           =    23-Mar-20
 _LASTORB        =    RHF
 _OUTPUT         =    /scr/yuriaoto/job.022817/RHF.xml
 _PGROUP         =    D2h 
 _TIME           =    14:41:20
 R               =      3.00000000

 Geometry written to block  1 of record 700


 **********************************************************************************************************************************
 DATASETS  * FILE   NREC   LENGTH (MB)   RECORD NAMES
              3       5       14.77       500      610      700     1000     2100   
                                          VAR    BASINP    GEOM     BASIS     RHF  

 PROGRAMS   *        TOTAL   RESTART
 CPU TIMES  *         0.11      0.01
 REAL TIME  *         0.14 SEC
 DISK USED  *        26.84 MB
 **********************************************************************************************************************************


 Recomputing integrals since basis changed


 Using spherical harmonics

 Library entry N      S cc-pVDZ              selected for orbital group  1
 Library entry N      P cc-pVDZ              selected for orbital group  1
 Library entry N      D cc-pVDZ              selected for orbital group  1


 PROGRAM * SEWARD (Integral evaluation for generally contracted gaussian basis sets)     Author: Roland Lindh, 1990

 Geometry written to block  1 of record 700

 Orientation using atomic masses  
 Molecule type: Linear
 User-specified symmetry elements: X,Y,Z
 Symmetry elements: X,Y,Z
 Rotational constants:      28.6329822     28.6329822      0.0000000 GHz  (calculated with average atomic masses)

 Point group  D2h 



 ATOMIC COORDINATES

 NR  ATOM    CHARGE       X              Y              Z

   1  N1      7.00    0.000000000    0.000000000   -1.500000000
   2  N2      7.00    0.000000000    0.000000000    1.500000000

 Bond lengths in Bohr (Angstrom)

 1-2  3.000000000
     ( 1.587531633)


 BASIS DATA

   Nr Sym  Nuc  Type         Exponents   Contraction coefficients

    1.1 Ag    1  1s        9046.000000     0.000700   -0.000153    0.000000
    2.1 Ag    2  1s        1357.000000     0.005389   -0.001208    0.000000
    3.1 Ag                  309.300000     0.027406   -0.005992    0.000000
                             87.730000     0.103207   -0.024544    0.000000
                             28.560000     0.278723   -0.067459    0.000000
                             10.210000     0.448540   -0.158078    0.000000
                              3.838000     0.278238   -0.121831    0.000000
                              0.746600     0.015440    0.549003    0.000000
                              0.224800    -0.002864    0.578815    1.000000
    4.1 Ag    1  2pz         13.550000     0.039919    0.000000
    5.1 Ag    2 -2pz          2.917000     0.217169    0.000000
                              0.797300     0.510319    0.000000
                              0.218500     0.462214    1.000000
    6.1 Ag    1  3d0          0.817000     1.000000
              2  3d0   
    7.1 Ag    1  3d2+         0.817000     1.000000
              2  3d2+  
    1.2 B3u   1  2px         13.550000     0.039919    0.000000
    2.2 B3u   2  2px          2.917000     0.217169    0.000000
                              0.797300     0.510319    0.000000
                              0.218500     0.462214    1.000000
    3.2 B3u   1  3d1+         0.817000     1.000000
              2 -3d1+  
    1.3 B2u   1  2py         13.550000     0.039919    0.000000
    2.3 B2u   2  2py          2.917000     0.217169    0.000000
                              0.797300     0.510319    0.000000
                              0.218500     0.462214    1.000000
    3.3 B2u   1  3d1-         0.817000     1.000000
              2 -3d1-  
    1.4 B1g   1  3d2-         0.817000     1.000000
              2  3d2-  
    1.5 B1u   1  1s        9046.000000     0.000700   -0.000153    0.000000
    2.5 B1u   2 -1s        1357.000000     0.005389   -0.001208    0.000000
    3.5 B1u                 309.300000     0.027406   -0.005992    0.000000
                             87.730000     0.103207   -0.024544    0.000000
                             28.560000     0.278723   -0.067459    0.000000
                             10.210000     0.448540   -0.158078    0.000000
                              3.838000     0.278238   -0.121831    0.000000
                              0.746600     0.015440    0.549003    0.000000
                              0.224800    -0.002864    0.578815    1.000000
    4.5 B1u   1  2pz         13.550000     0.039919    0.000000
    5.5 B1u   2  2pz          2.917000     0.217169    0.000000
                              0.797300     0.510319    0.000000
                              0.218500     0.462214    1.000000
    6.5 B1u   1  3d0          0.817000     1.000000
              2 -3d0   
    7.5 B1u   1  3d2+         0.817000     1.000000
              2 -3d2+  
    1.6 B2g   1  2px         13.550000     0.039919    0.000000
    2.6 B2g   2 -2px          2.917000     0.217169    0.000000
                              0.797300     0.510319    0.000000
                              0.218500     0.462214    1.000000
    3.6 B2g   1  3d1+         0.817000     1.000000
              2  3d1+  
    1.7 B3g   1  2py         13.550000     0.039919    0.000000
    2.7 B3g   2 -2py          2.917000     0.217169    0.000000
                              0.797300     0.510319    0.000000
                              0.218500     0.462214    1.000000
    3.7 B3g   1  3d1-         0.817000     1.000000
              2  3d1-  
    1.8 Au    1  3d2-         0.817000     1.000000
              2 -3d2-  

 NUCLEAR CHARGE:                   14
 NUMBER OF PRIMITIVE AOS:          54
 NUMBER OF SYMMETRY AOS:           52
 NUMBER OF CONTRACTIONS:           28   (    7Ag  +    3B3u +    3B2u +    1B1g +    7B1u +    3B2g +    3B3g +    1Au  )
 NUMBER OF CORE ORBITALS:           2   (    1Ag  +    0B3u +    0B2u +    0B1g +    1B1u +    0B2g +    0B3g +    0Au  )
 NUMBER OF VALENCE ORBITALS:        8   (    2Ag  +    1B3u +    1B2u +    0B1g +    2B1u +    1B2g +    1B3g +    0Au  )


 NUCLEAR REPULSION ENERGY   16.33333333

 EXTRA SYMMETRY OF AOS IN SYMMETRY 1:   1 1 1 1 1 1 2
 EXTRA SYMMETRY OF AOS IN SYMMETRY 5:   1 1 1 1 1 1 2

 Eigenvalues of metric

         1 0.453E-01 0.160E+00 0.100E+01 0.103E+01 0.121E+01 0.168E+01 0.337E+01
         2 0.196E+00 0.113E+01 0.236E+01
         3 0.196E+00 0.113E+01 0.236E+01
         4 0.103E+01
         5 0.148E-01 0.123E+00 0.368E+00 0.923E+00 0.975E+00 0.100E+01 0.211E+01
         6 0.152E+00 0.785E+00 0.137E+01
         7 0.152E+00 0.785E+00 0.137E+01
         8 0.975E+00


 Contracted 2-electron integrals neglected if value below      1.0D-11
 AO integral compression algorithm  1   Integral accuracy      1.0D-11

     0.262 MB (compressed) written to integral file (100.0%)


 NUMBER OF SORTED TWO-ELECTRON INTEGRALS:      13015.     BUFFER LENGTH:  32768
 NUMBER OF SEGMENTS:   1  SEGMENT LENGTH:      13015      RECORD LENGTH: 524288

 Memory used in sort:       0.57 MW

 SORT1 READ       27440. AND WROTE       11779. INTEGRALS IN      1 RECORDS. CPU TIME:     0.00 SEC, REAL TIME:     0.00 SEC
 SORT2 READ       11779. AND WROTE       13015. INTEGRALS IN      1 RECORDS. CPU TIME:     0.01 SEC, REAL TIME:     0.01 SEC

 FILE SIZES:   FILE 1:    30.2 MBYTE,  FILE 4:     4.2 MBYTE,   TOTAL:     34.5 MBYTE

 OPERATOR DM      FOR CENTER  0  COORDINATES:    0.000000    0.000000    0.000000


 **********************************************************************************************************************************
 DATASETS  * FILE   NREC   LENGTH (MB)   RECORD NAMES
              1      19       30.05       500      700      610      900      950      970     1000      129      960     1100   
                                          VAR     GEOM    BASINP   SYMINP    ZMAT    AOBASIS   BASIS     P2S    ABASIS      S 
                                         1400     1410     1200     1210     1080     1600     1650     1300     1700   
                                           T        V       H0       H01     AOSYM     SMH    MOLCAS    ERIS     OPER   

              3       5       14.77       500      610      700     1000     2100   
                                          VAR    BASINP    GEOM     BASIS     RHF  

 PROGRAMS   *        TOTAL       INT   RESTART
 CPU TIMES  *         0.27      0.15      0.01
 REAL TIME  *         0.40 SEC
 DISK USED  *        49.46 MB
 **********************************************************************************************************************************


 PROGRAM * CCSD (Closed-shell coupled cluster)     Authors: C. Hampel, H.-J. Werner, 1991, M. Deegan, P.J. Knowles, 1992


 Input parameters for THRESH:

 ENERGY   =    1.00D-10
 COEFF    =    1.00D-12
 PRINTCI  =    0.000000
 THRPRINT =    0.000000

 Convergence thresholds:  THRVAR = 1.00D-24  THRDEN = 1.00D-10

 Number of closed-shell orbitals:   7 (   3   1   1   0   2   0   0   0 )
 Number of external orbitals:      21 (   4   2   2   1   5   3   3   1 )

 Molecular orbitals read from record     2100.3  Type=RHF/CANONICAL (state 1.1)

 Number of N-1 electron functions:               0
 Number of N-2 electron functions:              28
 Number of singly external CSFs:                 0
 Number of doubly external CSFs:              1583
 Total number of CSFs:                        1584

 Length of J-op  integral file:               0.00 MB
 Length of K-op  integral file:               0.04 MB
 Length of 3-ext integral record:             0.00 MB

 Integral transformation finished. Total CPU:   0.00 sec, npass=  1  Memory used:   0.07 MW

 Reference energy:                   -108.60622581

 MP2 singlet pair energy:              -0.30154336
 MP2 triplet pair energy:              -0.23073443
 MP2 correlation energy:               -0.53227780
 MP2 total energy:                   -109.13850360

 SCS-MP2 correlation energy:           -0.50542013   (PS=  1.200000  PT=  0.333333)
 SCS-MP2 total energy:               -109.11164593

 ITER.      SQ.NORM     CORR.ENERGY   TOTAL ENERGY   ENERGY CHANGE        DEN1      VAR(S)    VAR(P)  DIIS     TIME  TIME/IT
   1      1.14139044    -0.44834781  -109.05457362     0.08392998     0.17643138  0.00D+00  0.81D-01  1  1     0.01     0.00
   2      1.19556556    -0.42211607  -109.02834188     0.02623174    -0.05524312  0.00D+00  0.24D-02  2  2     0.02     0.00
   3      1.21599435    -0.42344506  -109.02967087    -0.00132899    -0.00687749  0.00D+00  0.61D-03  3  3     0.02     0.00
   4      1.24683642    -0.42804049  -109.03426630    -0.00459543    -0.00788091  0.00D+00  0.10D-03  4  4     0.02     0.00
   5      1.25423812    -0.42723271  -109.03345851     0.00080779    -0.00088928  0.00D+00  0.12D-04  5  5     0.03     0.00
   6      1.25843462    -0.42763548  -109.03386129    -0.00040278    -0.00082689  0.00D+00  0.13D-05  6  6     0.03     0.00
   7      1.25889554    -0.42767016  -109.03389597    -0.00003468    -0.00007608  0.00D+00  0.10D-06  6  1     0.03     0.00
   8      1.25907543    -0.42766886  -109.03389466     0.00000131    -0.00001836  0.00D+00  0.75D-08  6  2     0.03     0.00
   9      1.25917370    -0.42767663  -109.03390244    -0.00000778    -0.00002587  0.00D+00  0.12D-08  6  3     0.04     0.00
  10      1.25913447    -0.42767412  -109.03389993     0.00000252     0.00001085  0.00D+00  0.78D-10  6  4     0.04     0.00
  11      1.25913564    -0.42767432  -109.03390012    -0.00000020    -0.00000088  0.00D+00  0.46D-11  6  5     0.04     0.00
  12      1.25913494    -0.42767430  -109.03390011     0.00000002     0.00000022  0.00D+00  0.73D-12  6  6     0.04     0.00
  13      1.25913535    -0.42767431  -109.03390012    -0.00000001    -0.00000009  0.00D+00  0.58D-13  6  1     0.05     0.00
  14      1.25913531    -0.42767431  -109.03390011     0.00000001     0.00000002  0.00D+00  0.55D-14  6  2     0.05     0.00
  15      1.25913529    -0.42767431  -109.03390011     0.00000000     0.00000000  0.00D+00  0.62D-15  6  3     0.05     0.00
  16      1.25913528    -0.42767431  -109.03390011    -0.00000000     0.00000000  0.00D+00  0.60D-16  6  4     0.06     0.00
  17      1.25913528    -0.42767431  -109.03390011    -0.00000000    -0.00000000  0.00D+00  0.47D-17  6  5     0.06     0.00
  18      1.25913529    -0.42767431  -109.03390011    -0.00000000    -0.00000000  0.00D+00  0.53D-18  6  6     0.06     0.00
  19      1.25913529    -0.42767431  -109.03390011     0.00000000     0.00000000  0.00D+00  0.82D-19  6  1     0.07     0.00
  20      1.25913529    -0.42767431  -109.03390011    -0.00000000    -0.00000000  0.00D+00  0.86D-20  6  2     0.07     0.00
  21      1.25913529    -0.42767431  -109.03390011     0.00000000     0.00000000  0.00D+00  0.17D-20  6  3     0.07     0.00
  22      1.25913529    -0.42767431  -109.03390011     0.00000000     0.00000000  0.00D+00  0.31D-21  6  4     0.08     0.00
  23      1.25913529    -0.42767431  -109.03390011     0.00000000     0.00000000  0.00D+00  0.29D-22  6  5     0.08     0.00
  24      1.25913529    -0.42767431  -109.03390011     0.00000000     0.00000000  0.00D+00  0.33D-23  6  6     0.08     0.00
  25      1.25913529    -0.42767431  -109.03390011     0.00000000     0.00000000  0.00D+00  0.93D-25  6  2     0.08     0.00


 Doubles amplitudes (print threshold =  0.000E+00):

         I         J         SYM. A    SYM. B    A         B      T(IJ, AB)

         1         1         1         1         1         1     -0.00059667
         1         1         1         1         1         2      0.00007710
         1         1         1         1         1         3     -0.00000000
         1         1         1         1         1         4     -0.00003501
         1         1         1         1         2         1      0.00007710
         1         1         1         1         2         2     -0.00051118
         1         1         1         1         2         3      0.00000000
         1         1         1         1         2         4     -0.00032281
         1         1         1         1         3         1     -0.00000000
         1         1         1         1         3         2      0.00000000
         1         1         1         1         3         3      0.00000333
         1         1         1         1         3         4      0.00000000
         1         1         1         1         4         1     -0.00003501
         1         1         1         1         4         2     -0.00032281
         1         1         1         1         4         3      0.00000000
         1         1         1         1         4         4     -0.00020020
         1         1         2         2         1         1     -0.00064710
         1         1         2         2         1         2     -0.00003132
         1         1         2         2         2         1     -0.00003132
         1         1         2         2         2         2      0.00000869
         1         1         3         3         1         1     -0.00064710
         1         1         3         3         1         2     -0.00003132
         1         1         3         3         2         1     -0.00003132
         1         1         3         3         2         2      0.00000869
         1         1         4         4         1         1      0.00000333
         1         1         5         5         1         1     -0.00052600
         1         1         5         5         1         2      0.00032417
         1         1         5         5         1         3      0.00040983
         1         1         5         5         1         4     -0.00000000
         1         1         5         5         1         5     -0.00007770
         1         1         5         5         2         1      0.00032417
         1         1         5         5         2         2     -0.00059356
         1         1         5         5         2         3      0.00004239
         1         1         5         5         2         4      0.00000000
         1         1         5         5         2         5      0.00009982
         1         1         5         5         3         1      0.00040983
         1         1         5         5         3         2      0.00004239
         1         1         5         5         3         3     -0.00045898
         1         1         5         5         3         4      0.00000000
         1         1         5         5         3         5      0.00000721
         1         1         5         5         4         1     -0.00000000
         1         1         5         5         4         2      0.00000000
         1         1         5         5         4         3      0.00000000
         1         1         5         5         4         4     -0.00000045
         1         1         5         5         4         5     -0.00000000
         1         1         5         5         5         1     -0.00007770
         1         1         5         5         5         2      0.00009982
         1         1         5         5         5         3      0.00000721
         1         1         5         5         5         4     -0.00000000
         1         1         5         5         5         5     -0.00002780
         1         1         6         6         1         1     -0.00025190
         1         1         6         6         1         2      0.00047165
         1         1         6         6         1         3      0.00002798
         1         1         6         6         2         1      0.00047165
         1         1         6         6         2         2     -0.00059631
         1         1         6         6         2         3     -0.00004168
         1         1         6         6         3         1      0.00002798
         1         1         6         6         3         2     -0.00004168
         1         1         6         6         3         3     -0.00000526
         1         1         7         7         1         1     -0.00025190
         1         1         7         7         1         2      0.00047165
         1         1         7         7         1         3      0.00002798
         1         1         7         7         2         1      0.00047165
         1         1         7         7         2         2     -0.00059631
         1         1         7         7         2         3     -0.00004168
         1         1         7         7         3         1      0.00002798
         1         1         7         7         3         2     -0.00004168
         1         1         7         7         3         3     -0.00000526
         1         1         8         8         1         1     -0.00000045
         2         1         1         1         1         1     -0.00007884
         2         1         1         1         1         2     -0.00026631
         2         1         1         1         1         3     -0.00000000
         2         1         1         1         1         4     -0.00015289
         2         1         1         1         2         1     -0.00045902
         2         1         1         1         2         2     -0.00013571
         2         1         1         1         2         3      0.00000000
         2         1         1         1         2         4     -0.00009179
         2         1         1         1         3         1     -0.00000000
         2         1         1         1         3         2      0.00000000
         2         1         1         1         3         3     -0.00008853
         2         1         1         1         3         4      0.00000000
         2         1         1         1         4         1     -0.00012634
         2         1         1         1         4         2      0.00006637
         2         1         1         1         4         3      0.00000000
         2         1         1         1         4         4     -0.00007683
         2         1         2         2         1         1     -0.00060988
         2         1         2         2         1         2     -0.00001754
         2         1         2         2         2         1      0.00011936
         2         1         2         2         2         2     -0.00008400
         2         1         3         3         1         1     -0.00060988
         2         1         3         3         1         2     -0.00001754
         2         1         3         3         2         1      0.00011936
         2         1         3         3         2         2     -0.00008400
         2         1         4         4         1         1     -0.00008853
         2         1         5         5         1         1     -0.00058902
         2         1         5         5         1         2      0.00075850
         2         1         5         5         1         3      0.00007650
         2         1         5         5         1         4      0.00000000
         2         1         5         5         1         5     -0.00014130
         2         1         5         5         2         1      0.00047356
         2         1         5         5         2         2     -0.00049671
         2         1         5         5         2         3     -0.00014793
         2         1         5         5         2         4     -0.00000000
         2         1         5         5         2         5      0.00012173
         2         1         5         5         3         1      0.00011612
         2         1         5         5         3         2     -0.00029011
         2         1         5         5         3         3      0.00010106
         2         1         5         5         3         4     -0.00000000
         2         1         5         5         3         5      0.00008952
         2         1         5         5         4         1      0.00000000
         2         1         5         5         4         2     -0.00000000
         2         1         5         5         4         3     -0.00000000
         2         1         5         5         4         4     -0.00011712
         2         1         5         5         4         5     -0.00000000
         2         1         5         5         5         1     -0.00018000
         2         1         5         5         5         2      0.00021431
         2         1         5         5         5         3      0.00007302
         2         1         5         5         5         4     -0.00000000
         2         1         5         5         5         5     -0.00016066
         2         1         6         6         1         1     -0.00055790
         2         1         6         6         1         2      0.00077739
         2         1         6         6         1         3      0.00001799
         2         1         6         6         2         1      0.00049933
         2         1         6         6         2         2     -0.00057114
         2         1         6         6         2         3      0.00000691
         2         1         6         6         3         1     -0.00010311
         2         1         6         6         3         2      0.00012003
         2         1         6         6         3         3     -0.00011263
         2         1         7         7         1         1     -0.00055790
         2         1         7         7         1         2      0.00077739
         2         1         7         7         1         3      0.00001799
         2         1         7         7         2         1      0.00049933
         2         1         7         7         2         2     -0.00057114
         2         1         7         7         2         3      0.00000691
         2         1         7         7         3         1     -0.00010311
         2         1         7         7         3         2      0.00012003
         2         1         7         7         3         3     -0.00011263
         2         1         8         8         1         1     -0.00011712
         2         2         1         1         1         1     -0.00432554
         2         2         1         1         1         2      0.00258164
         2         2         1         1         1         3     -0.00000000
         2         2         1         1         1         4      0.00188515
         2         2         1         1         2         1      0.00258164
         2         2         1         1         2         2     -0.01201201
         2         2         1         1         2         3      0.00000000
         2         2         1         1         2         4      0.00097015
         2         2         1         1         3         1     -0.00000000
         2         2         1         1         3         2      0.00000000
         2         2         1         1         3         3     -0.00525437
         2         2         1         1         3         4      0.00000000
         2         2         1         1         4         1      0.00188515
         2         2         1         1         4         2      0.00097015
         2         2         1         1         4         3      0.00000000
         2         2         1         1         4         4     -0.00726947
         2         2         2         2         1         1     -0.00608628
         2         2         2         2         1         2      0.00013519
         2         2         2         2         2         1      0.00013519
         2         2         2         2         2         2     -0.00804094
         2         2         3         3         1         1     -0.00608628
         2         2         3         3         1         2      0.00013519
         2         2         3         3         2         1      0.00013519
         2         2         3         3         2         2     -0.00804094
         2         2         4         4         1         1     -0.00525437
         2         2         5         5         1         1     -0.03228250
         2         2         5         5         1         2      0.00790312
         2         2         5         5         1         3      0.01023701
         2         2         5         5         1         4      0.00000000
         2         2         5         5         1         5     -0.00295320
         2         2         5         5         2         1      0.00790312
         2         2         5         5         2         2     -0.00446235
         2         2         5         5         2         3     -0.00165694
         2         2         5         5         2         4     -0.00000000
         2         2         5         5         2         5      0.00201226
         2         2         5         5         3         1      0.01023701
         2         2         5         5         3         2     -0.00165694
         2         2         5         5         3         3     -0.00729696
         2         2         5         5         3         4     -0.00000000
         2         2         5         5         3         5      0.00215788
         2         2         5         5         4         1      0.00000000
         2         2         5         5         4         2     -0.00000000
         2         2         5         5         4         3     -0.00000000
         2         2         5         5         4         4     -0.00525842
         2         2         5         5         4         5     -0.00000000
         2         2         5         5         5         1     -0.00295320
         2         2         5         5         5         2      0.00201226
         2         2         5         5         5         3      0.00215788
         2         2         5         5         5         4     -0.00000000
         2         2         5         5         5         5     -0.00342703
         2         2         6         6         1         1     -0.01595209
         2         2         6         6         1         2      0.00782758
         2         2         6         6         1         3     -0.00333820
         2         2         6         6         2         1      0.00782758
         2         2         6         6         2         2     -0.00505609
         2         2         6         6         2         3      0.00210070
         2         2         6         6         3         1     -0.00333820
         2         2         6         6         3         2      0.00210070
         2         2         6         6         3         3     -0.00461743
         2         2         7         7         1         1     -0.01595209
         2         2         7         7         1         2      0.00782758
         2         2         7         7         1         3     -0.00333820
         2         2         7         7         2         1      0.00782758
         2         2         7         7         2         2     -0.00505609
         2         2         7         7         2         3      0.00210070
         2         2         7         7         3         1     -0.00333820
         2         2         7         7         3         2      0.00210070
         2         2         7         7         3         3     -0.00461743
         2         2         8         8         1         1     -0.00525842
         3         1         1         1         1         1      0.00009844
         3         1         1         1         1         2      0.00033581
         3         1         1         1         1         3     -0.00000000
         3         1         1         1         1         4      0.00028946
         3         1         1         1         2         1     -0.00044394
         3         1         1         1         2         2     -0.00026265
         3         1         1         1         2         3     -0.00000000
         3         1         1         1         2         4     -0.00015511
         3         1         1         1         3         1     -0.00000000
         3         1         1         1         3         2      0.00000000
         3         1         1         1         3         3      0.00002730
         3         1         1         1         3         4      0.00000000
         3         1         1         1         4         1      0.00028533
         3         1         1         1         4         2      0.00037133
         3         1         1         1         4         3     -0.00000000
         3         1         1         1         4         4      0.00030951
         3         1         2         2         1         1      0.00020273
         3         1         2         2         1         2      0.00009374
         3         1         2         2         2         1      0.00061233
         3         1         2         2         2         2      0.00005196
         3         1         3         3         1         1      0.00020273
         3         1         3         3         1         2      0.00009374
         3         1         3         3         2         1      0.00061233
         3         1         3         3         2         2      0.00005196
         3         1         4         4         1         1      0.00002730
         3         1         5         5         1         1     -0.00005804
         3         1         5         5         1         2     -0.00002294
         3         1         5         5         1         3      0.00003106
         3         1         5         5         1         4      0.00000000
         3         1         5         5         1         5     -0.00015651
         3         1         5         5         2         1     -0.00040708
         3         1         5         5         2         2      0.00026449
         3         1         5         5         2         3      0.00021730
         3         1         5         5         2         4      0.00000000
         3         1         5         5         2         5      0.00006795
         3         1         5         5         3         1      0.00056742
         3         1         5         5         3         2     -0.00055021
         3         1         5         5         3         3     -0.00012409
         3         1         5         5         3         4      0.00000000
         3         1         5         5         3         5      0.00011606
         3         1         5         5         4         1      0.00000000
         3         1         5         5         4         2      0.00000000
         3         1         5         5         4         3      0.00000000
         3         1         5         5         4         4      0.00004083
         3         1         5         5         4         5      0.00000000
         3         1         5         5         5         1     -0.00049631
         3         1         5         5         5         2      0.00052557
         3         1         5         5         5         3      0.00007455
         3         1         5         5         5         4      0.00000000
         3         1         5         5         5         5     -0.00006649
         3         1         6         6         1         1      0.00018943
         3         1         6         6         1         2     -0.00024455
         3         1         6         6         1         3     -0.00015777
         3         1         6         6         2         1     -0.00006194
         3         1         6         6         2         2      0.00009409
         3         1         6         6         2         3      0.00009395
         3         1         6         6         3         1     -0.00054173
         3         1         6         6         3         2      0.00052752
         3         1         6         6         3         3      0.00007097
         3         1         7         7         1         1      0.00018943
         3         1         7         7         1         2     -0.00024455
         3         1         7         7         1         3     -0.00015777
         3         1         7         7         2         1     -0.00006194
         3         1         7         7         2         2      0.00009409
         3         1         7         7         2         3      0.00009395
         3         1         7         7         3         1     -0.00054173
         3         1         7         7         3         2      0.00052752
         3         1         7         7         3         3      0.00007097
         3         1         8         8         1         1      0.00004083
         3         2         1         1         1         1      0.00948234
         3         2         1         1         1         2     -0.00640432
         3         2         1         1         1         3     -0.00000000
         3         2         1         1         1         4      0.00045008
         3         2         1         1         2         1      0.00072976
         3         2         1         1         2         2     -0.00881464
         3         2         1         1         2         3      0.00000000
         3         2         1         1         2         4      0.00097698
         3         2         1         1         3         1     -0.00000000
         3         2         1         1         3         2      0.00000000
         3         2         1         1         3         3      0.00111361
         3         2         1         1         3         4      0.00000000
         3         2         1         1         4         1      0.00326443
         3         2         1         1         4         2      0.00069396
         3         2         1         1         4         3      0.00000000
         3         2         1         1         4         4     -0.00202273
         3         2         2         2         1         1      0.00218703
         3         2         2         2         1         2      0.00190570
         3         2         2         2         2         1      0.00363508
         3         2         2         2         2         2     -0.00207627
         3         2         3         3         1         1      0.00218703
         3         2         3         3         1         2      0.00190570
         3         2         3         3         2         1      0.00363508
         3         2         3         3         2         2     -0.00207627
         3         2         4         4         1         1      0.00111361
         3         2         5         5         1         1     -0.02651877
         3         2         5         5         1         2      0.00487031
         3         2         5         5         1         3      0.01261456
         3         2         5         5         1         4      0.00000000
         3         2         5         5         1         5     -0.00650563
         3         2         5         5         2         1      0.01301673
         3         2         5         5         2         2      0.00386133
         3         2         5         5         2         3     -0.00947867
         3         2         5         5         2         4      0.00000000
         3         2         5         5         2         5      0.00172681
         3         2         5         5         3         1      0.01159502
         3         2         5         5         3         2     -0.00530669
         3         2         5         5         3         3     -0.00146057
         3         2         5         5         3         4      0.00000000
         3         2         5         5         3         5      0.00107738
         3         2         5         5         4         1      0.00000000
         3         2         5         5         4         2      0.00000000
         3         2         5         5         4         3      0.00000000
         3         2         5         5         4         4      0.00186495
         3         2         5         5         4         5      0.00000000
         3         2         5         5         5         1     -0.01139599
         3         2         5         5         5         2      0.00345325
         3         2         5         5         5         3      0.00194499
         3         2         5         5         5         4      0.00000000
         3         2         5         5         5         5      0.00027359
         3         2         6         6         1         1      0.00977148
         3         2         6         6         1         2     -0.00090528
         3         2         6         6         1         3     -0.00576523
         3         2         6         6         2         1      0.00115234
         3         2         6         6         2         2      0.00062231
         3         2         6         6         2         3      0.00165796
         3         2         6         6         3         1     -0.01223063
         3         2         6         6         3         2      0.00329573
         3         2         6         6         3         3      0.00076317
         3         2         7         7         1         1      0.00977148
         3         2         7         7         1         2     -0.00090528
         3         2         7         7         1         3     -0.00576523
         3         2         7         7         2         1      0.00115234
         3         2         7         7         2         2      0.00062231
         3         2         7         7         2         3      0.00165796
         3         2         7         7         3         1     -0.01223063
         3         2         7         7         3         2      0.00329573
         3         2         7         7         3         3      0.00076317
         3         2         8         8         1         1      0.00186495
         3         3         1         1         1         1     -0.02109713
         3         3         1         1         1         2     -0.00434805
         3         3         1         1         1         3      0.00000000
         3         3         1         1         1         4     -0.00319831
         3         3         1         1         2         1     -0.00434805
         3         3         1         1         2         2     -0.00845949
         3         3         1         1         2         3     -0.00000000
         3         3         1         1         2         4      0.00708564
         3         3         1         1         3         1      0.00000000
         3         3         1         1         3         2     -0.00000000
         3         3         1         1         3         3     -0.00108455
         3         3         1         1         3         4     -0.00000000
         3         3         1         1         4         1     -0.00319831
         3         3         1         1         4         2      0.00708564
         3         3         1         1         4         3     -0.00000000
         3         3         1         1         4         4     -0.01218358
         3         3         2         2         1         1     -0.00219892
         3         3         2         2         1         2     -0.00316667
         3         3         2         2         2         1     -0.00316667
         3         3         2         2         2         2     -0.01359540
         3         3         3         3         1         1     -0.00219892
         3         3         3         3         1         2     -0.00316667
         3         3         3         3         2         1     -0.00316667
         3         3         3         3         2         2     -0.01359540
         3         3         4         4         1         1     -0.00108455
         3         3         5         5         1         1     -0.07934051
         3         3         5         5         1         2      0.02855064
         3         3         5         5         1         3      0.00015208
         3         3         5         5         1         4      0.00000000
         3         3         5         5         1         5      0.00193479
         3         3         5         5         2         1      0.02855064
         3         3         5         5         2         2     -0.02786834
         3         3         5         5         2         3      0.00251314
         3         3         5         5         2         4     -0.00000000
         3         3         5         5         2         5      0.00028935
         3         3         5         5         3         1      0.00015208
         3         3         5         5         3         2      0.00251314
         3         3         5         5         3         3     -0.00383237
         3         3         5         5         3         4     -0.00000000
         3         3         5         5         3         5      0.00397152
         3         3         5         5         4         1      0.00000000
         3         3         5         5         4         2     -0.00000000
         3         3         5         5         4         3     -0.00000000
         3         3         5         5         4         4     -0.00082893
         3         3         5         5         4         5     -0.00000000
         3         3         5         5         5         1      0.00193479
         3         3         5         5         5         2      0.00028935
         3         3         5         5         5         3      0.00397152
         3         3         5         5         5         4     -0.00000000
         3         3         5         5         5         5     -0.00578812
         3         3         6         6         1         1     -0.03401144
         3         3         6         6         1         2      0.00367068
         3         3         6         6         1         3      0.00937678
         3         3         6         6         2         1      0.00367068
         3         3         6         6         2         2     -0.00192639
         3         3         6         6         2         3     -0.00069428
         3         3         6         6         3         1      0.00937678
         3         3         6         6         3         2     -0.00069428
         3         3         6         6         3         3     -0.00631155
         3         3         7         7         1         1     -0.03401144
         3         3         7         7         1         2      0.00367068
         3         3         7         7         1         3      0.00937678
         3         3         7         7         2         1      0.00367068
         3         3         7         7         2         2     -0.00192639
         3         3         7         7         2         3     -0.00069428
         3         3         7         7         3         1      0.00937678
         3         3         7         7         3         2     -0.00069428
         3         3         7         7         3         3     -0.00631155
         3         3         8         8         1         1     -0.00082893
         4         4         1         1         1         1     -0.00324381
         4         4         1         1         1         2      0.00261369
         4         4         1         1         1         3     -0.00105215
         4         4         1         1         1         4      0.00132669
         4         4         1         1         2         1      0.00261369
         4         4         1         1         2         2     -0.00842130
         4         4         1         1         2         3     -0.00397033
         4         4         1         1         2         4     -0.00002362
         4         4         1         1         3         1     -0.00105215
         4         4         1         1         3         2     -0.00397033
         4         4         1         1         3         3     -0.00838399
         4         4         1         1         3         4      0.00321479
         4         4         1         1         4         1      0.00132669
         4         4         1         1         4         2     -0.00002362
         4         4         1         1         4         3      0.00321479
         4         4         1         1         4         4     -0.00260649
         4         4         2         2         1         1     -0.01808251
         4         4         2         2         1         2      0.00137338
         4         4         2         2         2         1      0.00137338
         4         4         2         2         2         2     -0.01072423
         4         4         3         3         1         1     -0.00081441
         4         4         3         3         1         2     -0.00008545
         4         4         3         3         2         1     -0.00008545
         4         4         3         3         2         2     -0.00070918
         4         4         4         4         1         1     -0.00838399
         4         4         5         5         1         1     -0.02345306
         4         4         5         5         1         2      0.00286604
         4         4         5         5         1         3      0.00113805
         4         4         5         5         1         4     -0.00531937
         4         4         5         5         1         5      0.00077882
         4         4         5         5         2         1      0.00286604
         4         4         5         5         2         2     -0.00157811
         4         4         5         5         2         3      0.00095193
         4         4         5         5         2         4     -0.00023076
         4         4         5         5         2         5      0.00056329
         4         4         5         5         3         1      0.00113805
         4         4         5         5         3         2      0.00095193
         4         4         5         5         3         3     -0.00333765
         4         4         5         5         3         4     -0.00065883
         4         4         5         5         3         5     -0.00034365
         4         4         5         5         4         1     -0.00531937
         4         4         5         5         4         2     -0.00023076
         4         4         5         5         4         3     -0.00065883
         4         4         5         5         4         4     -0.00535306
         4         4         5         5         4         5      0.00181955
         4         4         5         5         5         1      0.00077882
         4         4         5         5         5         2      0.00056329
         4         4         5         5         5         3     -0.00034365
         4         4         5         5         5         4      0.00181955
         4         4         5         5         5         5     -0.00100375
         4         4         6         6         1         1     -0.22760309
         4         4         6         6         1         2      0.03179176
         4         4         6         6         1         3     -0.00486719
         4         4         6         6         2         1      0.03179176
         4         4         6         6         2         2     -0.01292685
         4         4         6         6         2         3      0.00140276
         4         4         6         6         3         1     -0.00486719
         4         4         6         6         3         2      0.00140276
         4         4         6         6         3         3     -0.00438837
         4         4         7         7         1         1     -0.03475796
         4         4         7         7         1         2      0.00370920
         4         4         7         7         1         3     -0.00101832
         4         4         7         7         2         1      0.00370920
         4         4         7         7         2         2     -0.00061481
         4         4         7         7         2         3      0.00005363
         4         4         7         7         3         1     -0.00101832
         4         4         7         7         3         2      0.00005363
         4         4         7         7         3         3     -0.00020108
         4         4         8         8         1         1     -0.00535306
         5         5         1         1         1         1     -0.00324381
         5         5         1         1         1         2      0.00261369
         5         5         1         1         1         3      0.00105215
         5         5         1         1         1         4      0.00132669
         5         5         1         1         2         1      0.00261369
         5         5         1         1         2         2     -0.00842130
         5         5         1         1         2         3      0.00397033
         5         5         1         1         2         4     -0.00002362
         5         5         1         1         3         1      0.00105215
         5         5         1         1         3         2      0.00397033
         5         5         1         1         3         3     -0.00838399
         5         5         1         1         3         4     -0.00321479
         5         5         1         1         4         1      0.00132669
         5         5         1         1         4         2     -0.00002362
         5         5         1         1         4         3     -0.00321479
         5         5         1         1         4         4     -0.00260649
         5         5         2         2         1         1     -0.00081441
         5         5         2         2         1         2     -0.00008545
         5         5         2         2         2         1     -0.00008545
         5         5         2         2         2         2     -0.00070918
         5         5         3         3         1         1     -0.01808251
         5         5         3         3         1         2      0.00137338
         5         5         3         3         2         1      0.00137338
         5         5         3         3         2         2     -0.01072423
         5         5         4         4         1         1     -0.00838399
         5         5         5         5         1         1     -0.02345306
         5         5         5         5         1         2      0.00286604
         5         5         5         5         1         3      0.00113805
         5         5         5         5         1         4      0.00531937
         5         5         5         5         1         5      0.00077882
         5         5         5         5         2         1      0.00286604
         5         5         5         5         2         2     -0.00157811
         5         5         5         5         2         3      0.00095193
         5         5         5         5         2         4      0.00023076
         5         5         5         5         2         5      0.00056329
         5         5         5         5         3         1      0.00113805
         5         5         5         5         3         2      0.00095193
         5         5         5         5         3         3     -0.00333765
         5         5         5         5         3         4      0.00065883
         5         5         5         5         3         5     -0.00034365
         5         5         5         5         4         1      0.00531937
         5         5         5         5         4         2      0.00023076
         5         5         5         5         4         3      0.00065883
         5         5         5         5         4         4     -0.00535306
         5         5         5         5         4         5     -0.00181955
         5         5         5         5         5         1      0.00077882
         5         5         5         5         5         2      0.00056329
         5         5         5         5         5         3     -0.00034365
         5         5         5         5         5         4     -0.00181955
         5         5         5         5         5         5     -0.00100375
         5         5         6         6         1         1     -0.03475796
         5         5         6         6         1         2      0.00370920
         5         5         6         6         1         3     -0.00101832
         5         5         6         6         2         1      0.00370920
         5         5         6         6         2         2     -0.00061481
         5         5         6         6         2         3      0.00005363
         5         5         6         6         3         1     -0.00101832
         5         5         6         6         3         2      0.00005363
         5         5         6         6         3         3     -0.00020108
         5         5         7         7         1         1     -0.22760309
         5         5         7         7         1         2      0.03179176
         5         5         7         7         1         3     -0.00486719
         5         5         7         7         2         1      0.03179176
         5         5         7         7         2         2     -0.01292685
         5         5         7         7         2         3      0.00140276
         5         5         7         7         3         1     -0.00486719
         5         5         7         7         3         2      0.00140276
         5         5         7         7         3         3     -0.00438837
         5         5         8         8         1         1     -0.00535306
         6         6         1         1         1         1     -0.00059202
         6         6         1         1         1         2      0.00008217
         6         6         1         1         1         3     -0.00000000
         6         6         1         1         1         4     -0.00003238
         6         6         1         1         2         1      0.00008217
         6         6         1         1         2         2     -0.00050740
         6         6         1         1         2         3      0.00000000
         6         6         1         1         2         4     -0.00032066
         6         6         1         1         3         1     -0.00000000
         6         6         1         1         3         2      0.00000000
         6         6         1         1         3         3      0.00000267
         6         6         1         1         3         4      0.00000000
         6         6         1         1         4         1     -0.00003238
         6         6         1         1         4         2     -0.00032066
         6         6         1         1         4         3      0.00000000
         6         6         1         1         4         4     -0.00020004
         6         6         2         2         1         1     -0.00064077
         6         6         2         2         1         2     -0.00003197
         6         6         2         2         2         1     -0.00003197
         6         6         2         2         2         2      0.00000788
         6         6         3         3         1         1     -0.00064077
         6         6         3         3         1         2     -0.00003197
         6         6         3         3         2         1     -0.00003197
         6         6         3         3         2         2      0.00000788
         6         6         4         4         1         1      0.00000267
         6         6         5         5         1         1     -0.00053551
         6         6         5         5         1         2      0.00033451
         6         6         5         5         1         3      0.00041139
         6         6         5         5         1         4     -0.00000000
         6         6         5         5         1         5     -0.00008052
         6         6         5         5         2         1      0.00033451
         6         6         5         5         2         2     -0.00060448
         6         6         5         5         2         3      0.00004004
         6         6         5         5         2         4      0.00000000
         6         6         5         5         2         5      0.00010270
         6         6         5         5         3         1      0.00041139
         6         6         5         5         3         2      0.00004004
         6         6         5         5         3         3     -0.00045904
         6         6         5         5         3         4      0.00000000
         6         6         5         5         3         5      0.00000773
         6         6         5         5         4         1     -0.00000000
         6         6         5         5         4         2      0.00000000
         6         6         5         5         4         3      0.00000000
         6         6         5         5         4         4      0.00000033
         6         6         5         5         4         5     -0.00000000
         6         6         5         5         5         1     -0.00008052
         6         6         5         5         5         2      0.00010270
         6         6         5         5         5         3      0.00000773
         6         6         5         5         5         4     -0.00000000
         6         6         5         5         5         5     -0.00002801
         6         6         6         6         1         1     -0.00025801
         6         6         6         6         1         2      0.00047678
         6         6         6         6         1         3      0.00002783
         6         6         6         6         2         1      0.00047678
         6         6         6         6         2         2     -0.00060181
         6         6         6         6         2         3     -0.00004155
         6         6         6         6         3         1      0.00002783
         6         6         6         6         3         2     -0.00004155
         6         6         6         6         3         3     -0.00000454
         6         6         7         7         1         1     -0.00025801
         6         6         7         7         1         2      0.00047678
         6         6         7         7         1         3      0.00002783
         6         6         7         7         2         1      0.00047678
         6         6         7         7         2         2     -0.00060181
         6         6         7         7         2         3     -0.00004155
         6         6         7         7         3         1      0.00002783
         6         6         7         7         3         2     -0.00004155
         6         6         7         7         3         3     -0.00000454
         6         6         8         8         1         1      0.00000033
         7         6         1         1         1         1     -0.00017332
         7         6         1         1         1         2     -0.00042455
         7         6         1         1         1         3     -0.00000000
         7         6         1         1         1         4     -0.00028757
         7         6         1         1         2         1     -0.00017404
         7         6         1         1         2         2      0.00002004
         7         6         1         1         2         3     -0.00000000
         7         6         1         1         2         4      0.00000647
         7         6         1         1         3         1      0.00000000
         7         6         1         1         3         2     -0.00000000
         7         6         1         1         3         3     -0.00012245
         7         6         1         1         3         4     -0.00000000
         7         6         1         1         4         1     -0.00026889
         7         6         1         1         4         2     -0.00013824
         7         6         1         1         4         3      0.00000000
         7         6         1         1         4         4     -0.00025811
         7         6         2         2         1         1     -0.00068732
         7         6         2         2         1         2     -0.00006282
         7         6         2         2         2         1     -0.00023673
         7         6         2         2         2         2     -0.00012465
         7         6         3         3         1         1     -0.00068732
         7         6         3         3         1         2     -0.00006282
         7         6         3         3         2         1     -0.00023673
         7         6         3         3         2         2     -0.00012465
         7         6         4         4         1         1     -0.00012245
         7         6         5         5         1         1     -0.00057711
         7         6         5         5         1         2      0.00078313
         7         6         5         5         1         3      0.00006616
         7         6         5         5         1         4     -0.00000000
         7         6         5         5         1         5     -0.00007513
         7         6         5         5         2         1      0.00063726
         7         6         5         5         2         2     -0.00056722
         7         6         5         5         2         3     -0.00024800
         7         6         5         5         2         4      0.00000000
         7         6         5         5         2         5      0.00007287
         7         6         5         5         3         1     -0.00015339
         7         6         5         5         3         2     -0.00004307
         7         6         5         5         3         3      0.00016674
         7         6         5         5         3         4     -0.00000000
         7         6         5         5         3         5      0.00002688
         7         6         5         5         4         1     -0.00000000
         7         6         5         5         4         2      0.00000000
         7         6         5         5         4         3      0.00000000
         7         6         5         5         4         4     -0.00010066
         7         6         5         5         4         5      0.00000000
         7         6         5         5         5         1      0.00006137
         7         6         5         5         5         2     -0.00006021
         7         6         5         5         5         3      0.00002157
         7         6         5         5         5         4     -0.00000000
         7         6         5         5         5         5     -0.00009892
         7         6         6         6         1         1     -0.00068746
         7         6         6         6         1         2      0.00089698
         7         6         6         6         1         3      0.00009673
         7         6         6         6         2         1      0.00050203
         7         6         6         6         2         2     -0.00058129
         7         6         6         6         2         3     -0.00004762
         7         6         6         6         3         1      0.00015369
         7         6         6         6         3         2     -0.00014387
         7         6         6         6         3         3     -0.00011629
         7         6         7         7         1         1     -0.00068746
         7         6         7         7         1         2      0.00089698
         7         6         7         7         1         3      0.00009673
         7         6         7         7         2         1      0.00050203
         7         6         7         7         2         2     -0.00058129
         7         6         7         7         2         3     -0.00004762
         7         6         7         7         3         1      0.00015369
         7         6         7         7         3         2     -0.00014387
         7         6         7         7         3         3     -0.00011629
         7         6         8         8         1         1     -0.00010066
         7         7         1         1         1         1     -0.01456863
         7         7         1         1         1         2      0.00315661
         7         7         1         1         1         3      0.00000000
         7         7         1         1         1         4     -0.00026954
         7         7         1         1         2         1      0.00315661
         7         7         1         1         2         2     -0.00318683
         7         7         1         1         2         3     -0.00000000
         7         7         1         1         2         4      0.00158349
         7         7         1         1         3         1      0.00000000
         7         7         1         1         3         2     -0.00000000
         7         7         1         1         3         3     -0.00654450
         7         7         1         1         3         4     -0.00000000
         7         7         1         1         4         1     -0.00026954
         7         7         1         1         4         2      0.00158349
         7         7         1         1         4         3     -0.00000000
         7         7         1         1         4         4     -0.00751916
         7         7         2         2         1         1     -0.00719448
         7         7         2         2         1         2     -0.00303032
         7         7         2         2         2         1     -0.00303032
         7         7         2         2         2         2     -0.00809047
         7         7         3         3         1         1     -0.00719448
         7         7         3         3         1         2     -0.00303032
         7         7         3         3         2         1     -0.00303032
         7         7         3         3         2         2     -0.00809047
         7         7         4         4         1         1     -0.00654450
         7         7         5         5         1         1     -0.02574688
         7         7         5         5         1         2      0.00560774
         7         7         5         5         1         3      0.00016040
         7         7         5         5         1         4     -0.00000000
         7         7         5         5         1         5      0.00518170
         7         7         5         5         2         1      0.00560774
         7         7         5         5         2         2     -0.01366511
         7         7         5         5         2         3      0.00619172
         7         7         5         5         2         4      0.00000000
         7         7         5         5         2         5     -0.00035998
         7         7         5         5         3         1      0.00016040
         7         7         5         5         3         2      0.00619172
         7         7         5         5         3         3     -0.00639694
         7         7         5         5         3         4      0.00000000
         7         7         5         5         3         5      0.00082468
         7         7         5         5         4         1     -0.00000000
         7         7         5         5         4         2      0.00000000
         7         7         5         5         4         3      0.00000000
         7         7         5         5         4         4     -0.00543188
         7         7         5         5         4         5      0.00000000
         7         7         5         5         5         1      0.00518170
         7         7         5         5         5         2     -0.00035998
         7         7         5         5         5         3      0.00082468
         7         7         5         5         5         4      0.00000000
         7         7         5         5         5         5     -0.00397198
         7         7         6         6         1         1     -0.04373612
         7         7         6         6         1         2      0.00992845
         7         7         6         6         1         3      0.00653390
         7         7         6         6         2         1      0.00992845
         7         7         6         6         2         2     -0.00566469
         7         7         6         6         2         3     -0.00091418
         7         7         6         6         3         1      0.00653390
         7         7         6         6         3         2     -0.00091418
         7         7         6         6         3         3     -0.00527435
         7         7         7         7         1         1     -0.04373612
         7         7         7         7         1         2      0.00992845
         7         7         7         7         1         3      0.00653390
         7         7         7         7         2         1      0.00992845
         7         7         7         7         2         2     -0.00566469
         7         7         7         7         2         3     -0.00091418
         7         7         7         7         3         1      0.00653390
         7         7         7         7         3         2     -0.00091418
         7         7         7         7         3         3     -0.00527435
         7         7         8         8         1         1     -0.00543188
         4         1         1         2         1         1      0.00036546
         4         1         1         2         1         2      0.00006646
         4         1         1         2         2         1     -0.00017554
         4         1         1         2         2         2      0.00001743
         4         1         1         2         3         1      0.00057137
         4         1         1         2         3         2      0.00002362
         4         1         1         2         4         1     -0.00042834
         4         1         1         2         4         2      0.00000161
         4         1         2         1         1         1     -0.00019882
         4         1         2         1         1         2      0.00013924
         4         1         2         1         1         3      0.00007551
         4         1         2         1         1         4      0.00001230
         4         1         2         1         2         1      0.00037510
         4         1         2         1         2         2      0.00034946
         4         1         2         1         2         3      0.00000556
         4         1         2         1         2         4      0.00024034
         4         1         3         4         1         1      0.00007551
         4         1         3         4         2         1      0.00000556
         4         1         4         3         1         1      0.00057137
         4         1         4         3         1         2      0.00002362
         4         1         5         6         1         1     -0.00050236
         4         1         5         6         1         2      0.00040417
         4         1         5         6         1         3     -0.00012009
         4         1         5         6         2         1     -0.00016341
         4         1         5         6         2         2      0.00013303
         4         1         5         6         2         3      0.00009512
         4         1         5         6         3         1      0.00037940
         4         1         5         6         3         2     -0.00032437
         4         1         5         6         3         3      0.00000870
         4         1         5         6         4         1     -0.00054049
         4         1         5         6         4         2      0.00050044
         4         1         5         6         4         3      0.00002303
         4         1         5         6         5         1      0.00034187
         4         1         5         6         5         2     -0.00029339
         4         1         5         6         5         3     -0.00003902
         4         1         6         5         1         1     -0.00002850
         4         1         6         5         1         2     -0.00013122
         4         1         6         5         1         3      0.00004625
         4         1         6         5         1         4     -0.00015801
         4         1         6         5         1         5      0.00013765
         4         1         6         5         2         1     -0.00003868
         4         1         6         5         2         2     -0.00011358
         4         1         6         5         2         3      0.00015414
         4         1         6         5         2         4      0.00008063
         4         1         6         5         2         5     -0.00003004
[...]
         7         3         6         2         3         2      0.00394020
         7         3         7         3         1         1     -0.00752108
         7         3         7         3         1         2     -0.02305140
         7         3         7         3         2         1      0.00268323
         7         3         7         3         2         2      0.00404680
         7         3         7         3         3         1      0.00265485
         7         3         7         3         3         2      0.00394020
         7         3         8         4         1         1      0.00223055
         6         4         1         6         1         1     -0.00017087
         6         4         1         6         1         2     -0.00016677
         6         4         1         6         1         3      0.00029773
         6         4         1         6         2         1     -0.00001837
         6         4         1         6         2         2      0.00012060
         6         4         1         6         2         3      0.00028428
         6         4         1         6         3         1     -0.00014558
         6         4         1         6         3         2      0.00007700
         6         4         1         6         3         3     -0.00000214
         6         4         1         6         4         1      0.00009346
         6         4         1         6         4         2     -0.00000605
         6         4         1         6         4         3      0.00022678
         6         4         2         5         1         1      0.00038998
         6         4         2         5         1         2      0.00013767
         6         4         2         5         1         3     -0.00031956
         6         4         2         5         1         4      0.00051389
         6         4         2         5         1         5     -0.00030322
         6         4         2         5         2         1     -0.00009043
         6         4         2         5         2         2      0.00008687
         6         4         2         5         2         3      0.00000063
         6         4         2         5         2         4      0.00003209
         6         4         2         5         2         5     -0.00003910
         6         4         3         8         1         1      0.00051389
         6         4         3         8         2         1      0.00003209
         6         4         4         7         1         1     -0.00014558
         6         4         4         7         1         2      0.00007700
         6         4         4         7         1         3     -0.00000214
         6         4         5         2         1         1     -0.00009844
         6         4         5         2         1         2     -0.00058961
         6         4         5         2         2         1     -0.00011491
         6         4         5         2         2         2      0.00056691
         6         4         5         2         3         1      0.00019382
         6         4         5         2         3         2      0.00013741
         6         4         5         2         4         1      0.00007813
         6         4         5         2         4         2      0.00000087
         6         4         5         2         5         1     -0.00002743
         6         4         5         2         5         2     -0.00011693
         6         4         6         1         1         1     -0.00044044
         6         4         6         1         1         2      0.00022853
         6         4         6         1         1         3     -0.00058410
         6         4         6         1         1         4      0.00049860
         6         4         6         1         2         1      0.00036075
         6         4         6         1         2         2     -0.00018330
         6         4         6         1         2         3      0.00055304
         6         4         6         1         2         4     -0.00042151
         6         4         6         1         3         1      0.00006608
         6         4         6         1         3         2      0.00002989
         6         4         6         1         3         3      0.00002187
         6         4         6         1         3         4      0.00000763
         6         4         7         4         1         1     -0.00058410
         6         4         7         4         2         1      0.00055304
         6         4         7         4         3         1      0.00002187
         6         4         8         3         1         1      0.00007813
         6         4         8         3         1         2      0.00000087
         7         4         1         6         1         1     -0.01546996
         7         4         1         6         1         2      0.01229133
         7         4         1         6         1         3      0.00201226
         7         4         1         6         2         1      0.00556954
         7         4         1         6         2         2     -0.00552270
         7         4         1         6         2         3     -0.00072325
         7         4         1         6         3         1     -0.01028603
         7         4         1         6         3         2      0.00181614
         7         4         1         6         3         3      0.00003511
         7         4         1         6         4         1      0.00871417
         7         4         1         6         4         2     -0.00330852
         7         4         1         6         4         3      0.00282811
         7         4         2         5         1         1      0.00563964
         7         4         2         5         1         2      0.00300244
         7         4         2         5         1         3     -0.00385246
         7         4         2         5         1         4      0.00409019
         7         4         2         5         1         5     -0.00227370
         7         4         2         5         2         1     -0.00527868
         7         4         2         5         2         2      0.00248939
         7         4         2         5         2         3      0.00078347
         7         4         2         5         2         4      0.00292964
         7         4         2         5         2         5     -0.00131209
         7         4         3         8         1         1      0.00409019
         7         4         3         8         2         1      0.00292964
         7         4         4         7         1         1     -0.01028603
         7         4         4         7         1         2      0.00181614
         7         4         4         7         1         3      0.00003511
         7         4         5         2         1         1      0.00621805
         7         4         5         2         1         2     -0.01678196
         7         4         5         2         2         1      0.01074954
         7         4         5         2         2         2      0.00486900
         7         4         5         2         3         1     -0.01097350
         7         4         5         2         3         2      0.00032563
         7         4         5         2         4         1      0.00165468
         7         4         5         2         4         2      0.00053812
         7         4         5         2         5         1     -0.00217292
         7         4         5         2         5         2      0.00029584
         7         4         6         1         1         1     -0.00934699
         7         4         6         1         1         2     -0.00434449
         7         4         6         1         1         3     -0.02078757
         7         4         6         1         1         4      0.01320596
         7         4         6         1         2         1      0.00613277
         7         4         6         1         2         2     -0.00307439
         7         4         6         1         2         3      0.00354614
         7         4         6         1         2         4     -0.00298499
         7         4         6         1         3         1      0.00124113
         7         4         6         1         3         2     -0.00069643
         7         4         6         1         3         3      0.00078122
         7         4         6         1         3         4     -0.00008191
         7         4         7         4         1         1     -0.02078757
         7         4         7         4         2         1      0.00354614
         7         4         7         4         3         1      0.00078122
         7         4         8         3         1         1      0.00165468
         7         4         8         3         1         2      0.00053812
         6         5         1         7         1         1     -0.00017087
         6         5         1         7         1         2     -0.00016677
         6         5         1         7         1         3      0.00029773
         6         5         1         7         2         1     -0.00001837
         6         5         1         7         2         2      0.00012060
         6         5         1         7         2         3      0.00028428
         6         5         1         7         3         1      0.00014558
         6         5         1         7         3         2     -0.00007700
         6         5         1         7         3         3      0.00000214
         6         5         1         7         4         1      0.00009346
         6         5         1         7         4         2     -0.00000605
         6         5         1         7         4         3      0.00022678
         6         5         2         8         1         1      0.00051389
         6         5         2         8         2         1      0.00003209
         6         5         3         5         1         1      0.00038998
         6         5         3         5         1         2      0.00013767
         6         5         3         5         1         3     -0.00031956
         6         5         3         5         1         4     -0.00051389
         6         5         3         5         1         5     -0.00030322
         6         5         3         5         2         1     -0.00009043
         6         5         3         5         2         2      0.00008687
         6         5         3         5         2         3      0.00000063
         6         5         3         5         2         4     -0.00003209
         6         5         3         5         2         5     -0.00003910
         6         5         4         6         1         1     -0.00014558
         6         5         4         6         1         2      0.00007700
         6         5         4         6         1         3     -0.00000214
         6         5         5         3         1         1     -0.00009844
         6         5         5         3         1         2     -0.00058961
         6         5         5         3         2         1     -0.00011491
         6         5         5         3         2         2      0.00056691
         6         5         5         3         3         1      0.00019382
         6         5         5         3         3         2      0.00013741
         6         5         5         3         4         1     -0.00007813
         6         5         5         3         4         2     -0.00000087
         6         5         5         3         5         1     -0.00002743
         6         5         5         3         5         2     -0.00011693
         6         5         6         4         1         1     -0.00058410
         6         5         6         4         2         1      0.00055304
         6         5         6         4         3         1      0.00002187
         6         5         7         1         1         1     -0.00044044
         6         5         7         1         1         2      0.00022853
         6         5         7         1         1         3      0.00058410
         6         5         7         1         1         4      0.00049860
         6         5         7         1         2         1      0.00036075
         6         5         7         1         2         2     -0.00018330
         6         5         7         1         2         3     -0.00055304
         6         5         7         1         2         4     -0.00042151
         6         5         7         1         3         1      0.00006608
         6         5         7         1         3         2      0.00002989
         6         5         7         1         3         3     -0.00002187
         6         5         7         1         3         4      0.00000763
         6         5         8         2         1         1      0.00007813
         6         5         8         2         1         2      0.00000087
         7         5         1         7         1         1     -0.01546996
         7         5         1         7         1         2      0.01229133
         7         5         1         7         1         3      0.00201226
         7         5         1         7         2         1      0.00556954
         7         5         1         7         2         2     -0.00552270
         7         5         1         7         2         3     -0.00072325
         7         5         1         7         3         1      0.01028603
         7         5         1         7         3         2     -0.00181614
         7         5         1         7         3         3     -0.00003511
         7         5         1         7         4         1      0.00871417
         7         5         1         7         4         2     -0.00330852
         7         5         1         7         4         3      0.00282811
         7         5         2         8         1         1      0.00409019
         7         5         2         8         2         1      0.00292964
         7         5         3         5         1         1      0.00563964
         7         5         3         5         1         2      0.00300244
         7         5         3         5         1         3     -0.00385246
         7         5         3         5         1         4     -0.00409019
         7         5         3         5         1         5     -0.00227370
         7         5         3         5         2         1     -0.00527868
         7         5         3         5         2         2      0.00248939
         7         5         3         5         2         3      0.00078347
         7         5         3         5         2         4     -0.00292964
         7         5         3         5         2         5     -0.00131209
         7         5         4         6         1         1     -0.01028603
         7         5         4         6         1         2      0.00181614
         7         5         4         6         1         3      0.00003511
         7         5         5         3         1         1      0.00621805
         7         5         5         3         1         2     -0.01678196
         7         5         5         3         2         1      0.01074954
         7         5         5         3         2         2      0.00486900
         7         5         5         3         3         1     -0.01097350
         7         5         5         3         3         2      0.00032563
         7         5         5         3         4         1     -0.00165468
         7         5         5         3         4         2     -0.00053812
         7         5         5         3         5         1     -0.00217292
         7         5         5         3         5         2      0.00029584
         7         5         6         4         1         1     -0.02078757
         7         5         6         4         2         1      0.00354614
         7         5         6         4         3         1      0.00078122
         7         5         7         1         1         1     -0.00934699
         7         5         7         1         1         2     -0.00434449
         7         5         7         1         1         3      0.02078757
         7         5         7         1         1         4      0.01320596
         7         5         7         1         2         1      0.00613277
         7         5         7         1         2         2     -0.00307439
         7         5         7         1         2         3     -0.00354614
         7         5         7         1         2         4     -0.00298499
         7         5         7         1         3         1      0.00124113
         7         5         7         1         3         2     -0.00069643
         7         5         7         1         3         3     -0.00078122
         7         5         7         1         3         4     -0.00008191
         7         5         8         2         1         1      0.00165468
         7         5         8         2         1         2      0.00053812


 RESULTS
 =======

  Reference energy                   -108.606225806201

  Correlated core orbitals:             1.1       1.5
  Orbital energies:                   -15.7968  -15.7961

  CCD core-core energy                 -0.000691456450
  CCD core-valence energy              -0.002764047364
  CCD valence correlation energy       -0.424218802528

  CCD singlet pair energy              -0.322407678778
  CCD triplet pair energy              -0.105266627565
  CCD correlation energy               -0.427674306343

 !CCD total energy                   -109.033900112543

 Timing summary (sec):

 STEP                 CPU(USER)    SYS     CPU(TOT)    WALL
 CCSD iterations         0.09      0.01      0.10      0.11

 Program statistics:

 Available memory in ccsd:                39999004
 Min. memory needed in ccsd:                  7935
 Max. memory used in ccsd:                    9077
 Max. memory used in cckext:                 41129 (25 integral passes)



 **********************************************************************************************************************************
 DATASETS  * FILE   NREC   LENGTH (MB)   RECORD NAMES
              1      20       30.13       500      700      610      900      950      970     1000      129      960     1100   
                                          VAR     GEOM    BASINP   SYMINP    ZMAT    AOBASIS   BASIS     P2S    ABASIS      S 
                                         1400     1410     1200     1210     1080     1600     1650     1300     1700     1380   
                                           T        V       H0       H01     AOSYM     SMH    MOLCAS    ERIS     OPER     JKOP   

              3       5       14.77       500      610      700     1000     2100   
                                          VAR    BASINP    GEOM     BASIS     RHF  

 PROGRAMS   *        TOTAL      CCSD       INT   RESTART
 CPU TIMES  *         0.43      0.16      0.15      0.01
 REAL TIME  *         0.58 SEC
 DISK USED  *        49.46 MB
 **********************************************************************************************************************************
 Molecular orbitals read from record     2100.3  Type=RHF/CANONICAL (state 1.1)
 Occupation numbers read from record     2100.3  Type=RHF/RHF (state 1.1)
 Orbital energies read from record       2100.3  Type=RHF/CANONICAL (state 1.1)
 Redundancy group numbers read from rec  2100.3  Type=RHF/RHF (state 1.1)

 CCSD/cc-pVDZ energy=   -109.033900112543

            CCSD
   -109.03390011
 **********************************************************************************************************************************
 Molpro calculation terminated
