
 Primary working directories    : /scr/yuriaoto/job.023512/molpro.Ux1B0OiFwN
 Secondary working directories  : /scr/yuriaoto/job.023512/molpro.Ux1B0OiFwN
 Wavefunction directory         : /scr/yuriaoto/job.023512/
 Main file repository           : /scr/yuriaoto/job.023512/molpro.Ux1B0OiFwN/

 id        : yuriaoto

 Nodes             nprocs
 t-rex.ufabc.int.br    1

 Using customized tuning parameters: mindgm=8; mindgv=16; mindgc=1; mindgr=1; noblas=0; minvec=7
 default implementation of scratch files=df  


 Variables initialized (933), CPU time= 0.00 sec
 ***,
 memory,40,m
 gprint,orbital,basis,civector
 gthresh,thrprint=0,printci=0.0
 file,3,wfu.dat,old
 
 {ccsd,CC_NORM_MAX=10.0
 thresh,printci=0.0,ENERGY=1.0E-10,COEFF=1.0E-12
 print,ref=1
 wf,14,1,0;
 }
 
 Commands  initialized (760), CPU time= 0.01 sec, 617 directives.
 Default parameters read. Elapsed time= 0.05 sec

 Checking input...
 Passed
1


                                         ***  PROGRAM SYSTEM MOLPRO  ***
                                       Copyright, TTI GmbH Stuttgart, 2015
                                    Version 2019.2 linked Abr  7 2019 15:10:35


 **********************************************************************************************************************************
 LABEL *                                                                                 
  64 bit serial version                                                                  DATE: 02-Jun-20          TIME: 01:03:25  
 **********************************************************************************************************************************

 SHA1:             3a8a58c585c929645742fb5a1b7541a4ad1da699
 **********************************************************************************************************************************


 THRESHOLDS:

 ZERO    =  1.00D-12  ONEINT  =  1.00D-12  TWOINT  =  1.00D-11  PREFAC  =  1.00D-14  XXXXXX  =  1.00D-09  EORDER  =  1.00D-04
 ENERGY  =  0.00D+00  ETEST   =  0.00D+00  EDENS   =  0.00D+00  THRDEDEF=  1.00D-06  GRADIENT=  1.00D-02  STEP    =  1.00D-03
 ORBITAL =  1.00D-05  CIVEC   =  1.00D-05  COEFF   =  1.00D-04  PRINTCI =  0.00D+00  PUNCHCI =  9.90D+01  OPTGRAD =  3.00D-04
 OPTENERG=  1.00D-06  OPTSTEP =  3.00D-04  THRGRAD =  1.00D-10  COMPRESS=  1.00D-11  VARMIN  =  1.00D-07  VARMAX  =  1.00D-03
 THRDOUB =  0.00D+00  THRDIV  =  1.00D-05  THRRED  =  1.00D-07  THRPSP  =  1.00D+00  THRDC   =  1.00D-10  THRCS   =  1.00D-10
 THRNRM  =  1.00D-08  THREQ   =  0.00D+00  THRDE   =  1.00D+00  THRREF  =  1.00D-05  SPARFAC =  1.00D+00  THRDLP  =  1.00D-07
 THRDIA  =  1.00D-10  THRDLS  =  1.00D-07  THRGPS  =  0.00D+00  THRKEX  =  0.00D+00  THRDIS  =  2.00D-01  THRVAR  =  1.00D-10
 THRLOC  =  1.00D-06  THRGAP  =  1.00D-06  THRLOCT = -1.00D+00  THRGAPT = -1.00D+00  THRORB  =  1.00D-06  THRMLTP =  0.00D+00
 THRCPQCI=  1.00D-10  KEXTA   =  0.00D+00  THRCOARS=  0.00D+00  SYMTOL  =  1.00D-06  GRADTOL =  1.00D-06  THROVL  =  1.00D-08
 THRORTH =  1.00D-08  GRID    =  1.00D-06  GRIDMAX =  1.00D-03  DTMAX   =  0.00D+00  THROCCDE=  1.00D-01  THROCCDE=  1.00D-01
 THRPRINT=  0.00D+00


 Variable memory set to   40000000 words,  buffer space 



 Permanent file  3  wfu.dat  assigned.  Implementation=df    Size= 14.09 MB


 PROGRAM * RESTART 


 Reading variables from file 3

 _FNUC           =      0.00000000
 _BASIS          =    CC-PVDZ
 _NELEC          =     14.00000000
 _PROGRAM        =    RHF-SCF
 _DMX_SCF        =      0.00000000
 _DMY_SCF        =      0.00000000
 _DMZ_SCF        =      0.00000000
 _HOMO           =      1.20000000
 _EHOMO          =     -0.46392077
 _LUMO           =      1.60000000
 _ELUMO          =     -0.00944908
 _ENERGY         =   -108.60622581
 _ENERGY_METHOD  =    RHF
 _ENERGY_BASIS   =    cc-pVDZ
 _ENUC           =     16.33333333
 _EPS1(1:7)      =    -15.79676678    -1.19737912    -0.55506402     0.94628654     1.05507753     1.91447057
                        2.03771558
 _EPS2(1:3)      =     -0.46392077     0.91310838     1.72264736
 _EPS3(1:3)      =     -0.46392077     0.91310838     1.72264736
 _EPS4           =      1.91447057
 _EPS5(1:7)      =    -15.79614860    -0.90460729     0.23671206     0.86826039     1.39142551     2.07157051
                        3.02778440
 _EPS6(1:3)      =     -0.00944908     0.99822150     2.45091804
 _EPS7(1:3)      =     -0.00944908     0.99822150     2.45091804
 _EPS8           =      2.07157051
 _IPROC_MPP      =      0.00000000
 _IPROC_MPPX     =      0.00000000
 _ORBITAL        =   2100.30000000
 _STATUS         =      1.00000000
 _DATE           =    23-Mar-20
 _LASTORB        =    RHF
 _OUTPUT         =    /scr/yuriaoto/job.022817/RHF.xml
 _PGROUP         =    D2h 
 _TIME           =    14:41:20
 R               =      3.00000000

 Geometry written to block  1 of record 700


 **********************************************************************************************************************************
 DATASETS  * FILE   NREC   LENGTH (MB)   RECORD NAMES
              3       5       14.77       500      610      700     1000     2100   
                                          VAR    BASINP    GEOM     BASIS     RHF  

 PROGRAMS   *        TOTAL   RESTART
 CPU TIMES  *         0.12      0.01
 REAL TIME  *         0.15 SEC
 DISK USED  *        26.84 MB
 **********************************************************************************************************************************


 Recomputing integrals since basis changed


 Using spherical harmonics

 Library entry N      S cc-pVDZ              selected for orbital group  1
 Library entry N      P cc-pVDZ              selected for orbital group  1
 Library entry N      D cc-pVDZ              selected for orbital group  1


 PROGRAM * SEWARD (Integral evaluation for generally contracted gaussian basis sets)     Author: Roland Lindh, 1990

 Geometry written to block  1 of record 700

 Orientation using atomic masses  
 Molecule type: Linear
 User-specified symmetry elements: X,Y,Z
 Symmetry elements: X,Y,Z
 Rotational constants:      28.6329822     28.6329822      0.0000000 GHz  (calculated with average atomic masses)

 Point group  D2h 



 ATOMIC COORDINATES

 NR  ATOM    CHARGE       X              Y              Z

   1  N1      7.00    0.000000000    0.000000000   -1.500000000
   2  N2      7.00    0.000000000    0.000000000    1.500000000

 Bond lengths in Bohr (Angstrom)

 1-2  3.000000000
     ( 1.587531633)


 BASIS DATA

   Nr Sym  Nuc  Type         Exponents   Contraction coefficients

    1.1 Ag    1  1s        9046.000000     0.000700   -0.000153    0.000000
    2.1 Ag    2  1s        1357.000000     0.005389   -0.001208    0.000000
    3.1 Ag                  309.300000     0.027406   -0.005992    0.000000
                             87.730000     0.103207   -0.024544    0.000000
                             28.560000     0.278723   -0.067459    0.000000
                             10.210000     0.448540   -0.158078    0.000000
                              3.838000     0.278238   -0.121831    0.000000
                              0.746600     0.015440    0.549003    0.000000
                              0.224800    -0.002864    0.578815    1.000000
    4.1 Ag    1  2pz         13.550000     0.039919    0.000000
    5.1 Ag    2 -2pz          2.917000     0.217169    0.000000
                              0.797300     0.510319    0.000000
                              0.218500     0.462214    1.000000
    6.1 Ag    1  3d0          0.817000     1.000000
              2  3d0   
    7.1 Ag    1  3d2+         0.817000     1.000000
              2  3d2+  
    1.2 B3u   1  2px         13.550000     0.039919    0.000000
    2.2 B3u   2  2px          2.917000     0.217169    0.000000
                              0.797300     0.510319    0.000000
                              0.218500     0.462214    1.000000
    3.2 B3u   1  3d1+         0.817000     1.000000
              2 -3d1+  
    1.3 B2u   1  2py         13.550000     0.039919    0.000000
    2.3 B2u   2  2py          2.917000     0.217169    0.000000
                              0.797300     0.510319    0.000000
                              0.218500     0.462214    1.000000
    3.3 B2u   1  3d1-         0.817000     1.000000
              2 -3d1-  
    1.4 B1g   1  3d2-         0.817000     1.000000
              2  3d2-  
    1.5 B1u   1  1s        9046.000000     0.000700   -0.000153    0.000000
    2.5 B1u   2 -1s        1357.000000     0.005389   -0.001208    0.000000
    3.5 B1u                 309.300000     0.027406   -0.005992    0.000000
                             87.730000     0.103207   -0.024544    0.000000
                             28.560000     0.278723   -0.067459    0.000000
                             10.210000     0.448540   -0.158078    0.000000
                              3.838000     0.278238   -0.121831    0.000000
                              0.746600     0.015440    0.549003    0.000000
                              0.224800    -0.002864    0.578815    1.000000
    4.5 B1u   1  2pz         13.550000     0.039919    0.000000
    5.5 B1u   2  2pz          2.917000     0.217169    0.000000
                              0.797300     0.510319    0.000000
                              0.218500     0.462214    1.000000
    6.5 B1u   1  3d0          0.817000     1.000000
              2 -3d0   
    7.5 B1u   1  3d2+         0.817000     1.000000
              2 -3d2+  
    1.6 B2g   1  2px         13.550000     0.039919    0.000000
    2.6 B2g   2 -2px          2.917000     0.217169    0.000000
                              0.797300     0.510319    0.000000
                              0.218500     0.462214    1.000000
    3.6 B2g   1  3d1+         0.817000     1.000000
              2  3d1+  
    1.7 B3g   1  2py         13.550000     0.039919    0.000000
    2.7 B3g   2 -2py          2.917000     0.217169    0.000000
                              0.797300     0.510319    0.000000
                              0.218500     0.462214    1.000000
    3.7 B3g   1  3d1-         0.817000     1.000000
              2  3d1-  
    1.8 Au    1  3d2-         0.817000     1.000000
              2 -3d2-  

 NUCLEAR CHARGE:                   14
 NUMBER OF PRIMITIVE AOS:          54
 NUMBER OF SYMMETRY AOS:           52
 NUMBER OF CONTRACTIONS:           28   (    7Ag  +    3B3u +    3B2u +    1B1g +    7B1u +    3B2g +    3B3g +    1Au  )
 NUMBER OF CORE ORBITALS:           2   (    1Ag  +    0B3u +    0B2u +    0B1g +    1B1u +    0B2g +    0B3g +    0Au  )
 NUMBER OF VALENCE ORBITALS:        8   (    2Ag  +    1B3u +    1B2u +    0B1g +    2B1u +    1B2g +    1B3g +    0Au  )


 NUCLEAR REPULSION ENERGY   16.33333333

 EXTRA SYMMETRY OF AOS IN SYMMETRY 1:   1 1 1 1 1 1 2
 EXTRA SYMMETRY OF AOS IN SYMMETRY 5:   1 1 1 1 1 1 2

 Eigenvalues of metric

         1 0.453E-01 0.160E+00 0.100E+01 0.103E+01 0.121E+01 0.168E+01 0.337E+01
         2 0.196E+00 0.113E+01 0.236E+01
         3 0.196E+00 0.113E+01 0.236E+01
         4 0.103E+01
         5 0.148E-01 0.123E+00 0.368E+00 0.923E+00 0.975E+00 0.100E+01 0.211E+01
         6 0.152E+00 0.785E+00 0.137E+01
         7 0.152E+00 0.785E+00 0.137E+01
         8 0.975E+00


 Contracted 2-electron integrals neglected if value below      1.0D-11
 AO integral compression algorithm  1   Integral accuracy      1.0D-11

     0.262 MB (compressed) written to integral file (100.0%)


 NUMBER OF SORTED TWO-ELECTRON INTEGRALS:      13015.     BUFFER LENGTH:  32768
 NUMBER OF SEGMENTS:   1  SEGMENT LENGTH:      13015      RECORD LENGTH: 524288

 Memory used in sort:       0.57 MW

 SORT1 READ       27440. AND WROTE       11779. INTEGRALS IN      1 RECORDS. CPU TIME:     0.00 SEC, REAL TIME:     0.00 SEC
 SORT2 READ       11779. AND WROTE       13015. INTEGRALS IN      1 RECORDS. CPU TIME:     0.03 SEC, REAL TIME:     0.03 SEC

 FILE SIZES:   FILE 1:    30.2 MBYTE,  FILE 4:     4.2 MBYTE,   TOTAL:     34.5 MBYTE

 OPERATOR DM      FOR CENTER  0  COORDINATES:    0.000000    0.000000    0.000000


 **********************************************************************************************************************************
 DATASETS  * FILE   NREC   LENGTH (MB)   RECORD NAMES
              1      19       30.05       500      700      610      900      950      970     1000      129      960     1100   
                                          VAR     GEOM    BASINP   SYMINP    ZMAT    AOBASIS   BASIS     P2S    ABASIS      S 
                                         1400     1410     1200     1210     1080     1600     1650     1300     1700   
                                           T        V       H0       H01     AOSYM     SMH    MOLCAS    ERIS     OPER   

              3       5       14.77       500      610      700     1000     2100   
                                          VAR    BASINP    GEOM     BASIS     RHF  

 PROGRAMS   *        TOTAL       INT   RESTART
 CPU TIMES  *         0.27      0.15      0.01
 REAL TIME  *         0.47 SEC
 DISK USED  *        49.46 MB
 **********************************************************************************************************************************


 PROGRAM * CCSD (Closed-shell coupled cluster)     Authors: C. Hampel, H.-J. Werner, 1991, M. Deegan, P.J. Knowles, 1992


 Input parameters for THRESH:

 ENERGY   =    1.00D-10
 COEFF    =    1.00D-12
 PRINTCI  =    0.000000
 THRPRINT =    0.000000

 Convergence thresholds:  THRVAR = 1.00D-24  THRDEN = 1.00D-10

 Number of core orbitals:           2 (   1   0   0   0   1   0   0   0 )
 Number of closed-shell orbitals:   5 (   2   1   1   0   1   0   0   0 )
 Number of external orbitals:      21 (   4   2   2   1   5   3   3   1 )

 Molecular orbitals read from record     2100.3  Type=RHF/CANONICAL (state 1.1)

 Number of N-1 electron functions:               5
 Number of N-2 electron functions:              15
 Number of singly external CSFs:                17
 Number of doubly external CSFs:               802
 Total number of CSFs:                         820

 Length of J-op  integral file:               0.00 MB
 Length of K-op  integral file:               0.04 MB
 Length of 3-ext integral record:             0.00 MB

 Integral transformation finished. Total CPU:   0.01 sec, npass=  1  Memory used:   0.07 MW

 Reference energy:                   -108.60622581

 MP2 singlet pair energy:              -0.29939050
 MP2 triplet pair energy:              -0.22929696
 MP2 correlation energy:               -0.52868746
 MP2 total energy:                   -109.13491327

 SCS-MP2 correlation energy:           -0.50194227   (PS=  1.200000  PT=  0.333333)
 SCS-MP2 total energy:               -109.10816807

 ITER.      SQ.NORM     CORR.ENERGY   TOTAL ENERGY   ENERGY CHANGE        DEN1      VAR(S)    VAR(P)  DIIS     TIME  TIME/IT
   1      1.15932981    -0.47460951  -109.08083531     0.05407796     0.17756490  0.18D-01  0.81D-01  1  1     0.02     0.01
   2      1.21589383    -0.43092785  -109.03715366     0.04368165    -0.06522668  0.35D-03  0.28D-02  2  2     0.03     0.00
   3      1.23845498    -0.42944196  -109.03566777     0.00148589    -0.00645139  0.27D-04  0.77D-03  3  3     0.03     0.00
   4      1.26793647    -0.43481409  -109.04103989    -0.00537212    -0.00832196  0.23D-04  0.20D-03  4  4     0.03     0.00
   5      1.28393079    -0.43477394  -109.04099974     0.00004015    -0.00259805  0.38D-06  0.29D-04  5  5     0.04     0.00
   6      1.28890994    -0.43454919  -109.04077499     0.00022475    -0.00058003  0.44D-06  0.40D-05  6  6     0.04     0.00
   7      1.29132709    -0.43479350  -109.04101930    -0.00024431    -0.00048386  0.93D-08  0.41D-06  6  1     0.04     0.00
   8      1.29124129    -0.43478991  -109.04101572     0.00000358     0.00004447  0.54D-08  0.55D-07  6  2     0.05     0.00
   9      1.29151713    -0.43479367  -109.04101948    -0.00000376    -0.00006551  0.56D-09  0.30D-08  6  3     0.05     0.00
  10      1.29150861    -0.43479645  -109.04102226    -0.00000278     0.00000438  0.34D-10  0.45D-09  6  4     0.05     0.00
  11      1.29149262    -0.43479601  -109.04102182     0.00000044     0.00000382  0.65D-11  0.33D-10  6  5     0.06     0.00
  12      1.29148727    -0.43479599  -109.04102180     0.00000002     0.00000142  0.67D-12  0.44D-11  6  6     0.06     0.00
  13      1.29148704    -0.43479596  -109.04102177     0.00000003     0.00000007  0.60D-13  0.63D-12  6  1     0.06     0.00
  14      1.29148753    -0.43479595  -109.04102176     0.00000001    -0.00000012  0.83D-14  0.54D-13  6  2     0.07     0.00
  15      1.29148737    -0.43479595  -109.04102175     0.00000000     0.00000004  0.13D-14  0.10D-13  6  3     0.07     0.00
  16      1.29148736    -0.43479595  -109.04102175    -0.00000000    -0.00000001  0.27D-15  0.15D-14  6  4     0.07     0.00
  17      1.29148730    -0.43479595  -109.04102175     0.00000000     0.00000001  0.83D-17  0.12D-15  6  5     0.08     0.00
  18      1.29148730    -0.43479595  -109.04102175    -0.00000000    -0.00000000  0.16D-17  0.19D-16  6  1     0.08     0.00
  19      1.29148729    -0.43479594  -109.04102175     0.00000000     0.00000000  0.25D-18  0.23D-17  6  6     0.08     0.00
  20      1.29148729    -0.43479594  -109.04102175     0.00000000    -0.00000000  0.53D-19  0.51D-18  6  2     0.09     0.00
  21      1.29148729    -0.43479594  -109.04102175     0.00000000     0.00000000  0.63D-20  0.10D-18  6  3     0.09     0.00
  22      1.29148729    -0.43479594  -109.04102175     0.00000000     0.00000000  0.21D-20  0.81D-20  6  5     0.09     0.00
  23      1.29148729    -0.43479594  -109.04102175     0.00000000     0.00000000  0.55D-22  0.53D-21  6  4     0.09     0.00
  24      1.29148729    -0.43479594  -109.04102175     0.00000000     0.00000000  0.20D-22  0.13D-21  6  6     0.10     0.00
  25      1.29148729    -0.43479594  -109.04102175     0.00000000     0.00000000  0.17D-23  0.13D-22  6  1     0.10     0.00
  26      1.29148729    -0.43479594  -109.04102175     0.00000000     0.00000000  0.12D-24  0.26D-23  6  2     0.10     0.00
  27      1.29148729    -0.43479594  -109.04102175    -0.00000000    -0.00000000  0.56D-25  0.36D-24  6  5     0.11     0.00

 Norm of t1 vector:      0.11922633      S-energy:    -0.00000000      T1 diagnostic:  0.02665982
                                                                       D1 diagnostic:  0.05321190

 Singles amplitudes (print threshold =  0.000E+00):

         I         SYM. A    A   T(IA)

         1         1         1     -0.00599751
         1         1         2     -0.00264926
         1         1         3      0.00000000
         1         1         4     -0.00582065
         2         1         1     -0.00246630
         2         1         2     -0.01587257
         2         1         3     -0.00000000
         2         1         4     -0.01389284
         3         2         1     -0.05202743
         3         2         2     -0.01116483
         4         3         1     -0.05202743
         4         3         2     -0.01116483
         5         5         1      0.02869140
         5         5         2     -0.00957812
         5         5         3     -0.00087266
         5         5         4     -0.00000000
         5         5         5     -0.00092006

 Doubles amplitudes (print threshold =  0.000E+00):

         I         J         SYM. A    SYM. B    A         B      T(IJ, AB)

         1         1         1         1         1         1     -0.00437912
         1         1         1         1         1         2      0.00267087
         1         1         1         1         1         3     -0.00000000
         1         1         1         1         1         4      0.00188403
         1         1         1         1         2         1      0.00267087
         1         1         1         1         2         2     -0.01197057
         1         1         1         1         2         3      0.00000000
         1         1         1         1         2         4      0.00093055
         1         1         1         1         3         1     -0.00000000
         1         1         1         1         3         2      0.00000000
         1         1         1         1         3         3     -0.00529611
         1         1         1         1         3         4      0.00000000
         1         1         1         1         4         1      0.00188403
         1         1         1         1         4         2      0.00093055
         1         1         1         1         4         3      0.00000000
         1         1         1         1         4         4     -0.00739381
         1         1         2         2         1         1     -0.00563259
         1         1         2         2         1         2     -0.00004727
         1         1         2         2         2         1     -0.00004727
         1         1         2         2         2         2     -0.00813365
         1         1         3         3         1         1     -0.00563259
         1         1         3         3         1         2     -0.00004727
         1         1         3         3         2         1     -0.00004727
         1         1         3         3         2         2     -0.00813365
         1         1         4         4         1         1     -0.00529611
         1         1         5         5         1         1     -0.03070800
         1         1         5         5         1         2      0.00750513
         1         1         5         5         1         3      0.01004026
         1         1         5         5         1         4      0.00000000
         1         1         5         5         1         5     -0.00292963
         1         1         5         5         2         1      0.00750513
         1         1         5         5         2         2     -0.00442551
         1         1         5         5         2         3     -0.00164061
         1         1         5         5         2         4     -0.00000000
         1         1         5         5         2         5      0.00204956
         1         1         5         5         3         1      0.01004026
         1         1         5         5         3         2     -0.00164061
         1         1         5         5         3         3     -0.00735963
         1         1         5         5         3         4     -0.00000000
         1         1         5         5         3         5      0.00216321
         1         1         5         5         4         1      0.00000000
         1         1         5         5         4         2     -0.00000000
         1         1         5         5         4         3     -0.00000000
         1         1         5         5         4         4     -0.00534164
         1         1         5         5         4         5     -0.00000000
         1         1         5         5         5         1     -0.00292963
         1         1         5         5         5         2      0.00204956
         1         1         5         5         5         3      0.00216321
         1         1         5         5         5         4     -0.00000000
         1         1         5         5         5         5     -0.00344687
         1         1         6         6         1         1     -0.01532385
         1         1         6         6         1         2      0.00761038
         1         1         6         6         1         3     -0.00340007
         1         1         6         6         2         1      0.00761038
         1         1         6         6         2         2     -0.00509252
         1         1         6         6         2         3      0.00216351
         1         1         6         6         3         1     -0.00340007
         1         1         6         6         3         2      0.00216351
         1         1         6         6         3         3     -0.00464570
         1         1         7         7         1         1     -0.01532385
         1         1         7         7         1         2      0.00761038
         1         1         7         7         1         3     -0.00340007
         1         1         7         7         2         1      0.00761038
         1         1         7         7         2         2     -0.00509252
         1         1         7         7         2         3      0.00216351
         1         1         7         7         3         1     -0.00340007
         1         1         7         7         3         2      0.00216351
         1         1         7         7         3         3     -0.00464570
         1         1         8         8         1         1     -0.00534164
         2         1         1         1         1         1      0.00957800
         2         1         1         1         1         2     -0.00641203
         2         1         1         1         1         3     -0.00000000
         2         1         1         1         1         4      0.00038939
         2         1         1         1         2         1      0.00072238
         2         1         1         1         2         2     -0.00858875
         2         1         1         1         2         3      0.00000000
         2         1         1         1         2         4      0.00099882
         2         1         1         1         3         1     -0.00000000
         2         1         1         1         3         2      0.00000000
         2         1         1         1         3         3      0.00110927
         2         1         1         1         3         4      0.00000000
         2         1         1         1         4         1      0.00309445
         2         1         1         1         4         2      0.00051444
         2         1         1         1         4         3      0.00000000
         2         1         1         1         4         4     -0.00231484
         2         1         2         2         1         1      0.00187907
         2         1         2         2         1         2      0.00162754
         2         1         2         2         2         1      0.00290722
         2         1         2         2         2         2     -0.00223651
         2         1         3         3         1         1      0.00187907
         2         1         3         3         1         2      0.00162754
         2         1         3         3         2         1      0.00290722
         2         1         3         3         2         2     -0.00223651
         2         1         4         4         1         1      0.00110927
         2         1         5         5         1         1     -0.02550173
         2         1         5         5         1         2      0.00461701
         2         1         5         5         1         3      0.01285597
         2         1         5         5         1         4     -0.00000000
         2         1         5         5         1         5     -0.00643316
         2         1         5         5         2         1      0.01249350
         2         1         5         5         2         2      0.00401833
         2         1         5         5         2         3     -0.00957216
         2         1         5         5         2         4      0.00000000
         2         1         5         5         2         5      0.00170612
         2         1         5         5         3         1      0.01200336
         2         1         5         5         3         2     -0.00540221
         2         1         5         5         3         3     -0.00157388
         2         1         5         5         3         4      0.00000000
         2         1         5         5         3         5      0.00111704
         2         1         5         5         4         1      0.00000000
         2         1         5         5         4         2      0.00000000
         2         1         5         5         4         3      0.00000000
         2         1         5         5         4         4      0.00186078
         2         1         5         5         4         5      0.00000000
         2         1         5         5         5         1     -0.01142918
         2         1         5         5         5         2      0.00345282
         2         1         5         5         5         3      0.00197295
         2         1         5         5         5         4      0.00000000
         2         1         5         5         5         5      0.00024220
         2         1         6         6         1         1      0.00906470
         2         1         6         6         1         2     -0.00054773
         2         1         6         6         1         3     -0.00580551
         2         1         6         6         2         1      0.00159332
         2         1         6         6         2         2      0.00050350
         2         1         6         6         2         3      0.00169862
         2         1         6         6         3         1     -0.01237560
         2         1         6         6         3         2      0.00334752
         2         1         6         6         3         3      0.00075198
         2         1         7         7         1         1      0.00906470
         2         1         7         7         1         2     -0.00054773
         2         1         7         7         1         3     -0.00580551
         2         1         7         7         2         1      0.00159332
         2         1         7         7         2         2      0.00050350
         2         1         7         7         2         3      0.00169862
         2         1         7         7         3         1     -0.01237560
         2         1         7         7         3         2      0.00334752
         2         1         7         7         3         3      0.00075198
         2         1         8         8         1         1      0.00186078
         2         2         1         1         1         1     -0.02114011
         2         2         1         1         1         2     -0.00402824
         2         2         1         1         1         3      0.00000000
         2         2         1         1         1         4     -0.00335466
         2         2         1         1         2         1     -0.00402824
         2         2         1         1         2         2     -0.00856922
         2         2         1         1         2         3     -0.00000000
         2         2         1         1         2         4      0.00731650
         2         2         1         1         3         1      0.00000000
         2         2         1         1         3         2     -0.00000000
         2         2         1         1         3         3     -0.00103077
         2         2         1         1         3         4     -0.00000000
         2         2         1         1         4         1     -0.00335466
         2         2         1         1         4         2      0.00731650
         2         2         1         1         4         3     -0.00000000
         2         2         1         1         4         4     -0.01203803
         2         2         2         2         1         1     -0.00192118
         2         2         2         2         1         2     -0.00276516
         2         2         2         2         2         1     -0.00276516
         2         2         2         2         2         2     -0.01340651
         2         2         3         3         1         1     -0.00192118
         2         2         3         3         1         2     -0.00276516
         2         2         3         3         2         1     -0.00276516
         2         2         3         3         2         2     -0.01340651
         2         2         4         4         1         1     -0.00103077
         2         2         5         5         1         1     -0.08408465
         2         2         5         5         1         2      0.03023316
         2         2         5         5         1         3     -0.00001380
         2         2         5         5         1         4      0.00000000
         2         2         5         5         1         5      0.00243560
         2         2         5         5         2         1      0.03023316
         2         2         5         5         2         2     -0.02847968
         2         2         5         5         2         3      0.00256952
         2         2         5         5         2         4     -0.00000000
         2         2         5         5         2         5      0.00008350
         2         2         5         5         3         1     -0.00001380
         2         2         5         5         3         2      0.00256952
         2         2         5         5         3         3     -0.00391724
         2         2         5         5         3         4     -0.00000000
         2         2         5         5         3         5      0.00405286
         2         2         5         5         4         1      0.00000000
         2         2         5         5         4         2     -0.00000000
         2         2         5         5         4         3     -0.00000000
         2         2         5         5         4         4     -0.00078982
         2         2         5         5         4         5     -0.00000000
         2         2         5         5         5         1      0.00243560
         2         2         5         5         5         2      0.00008350
         2         2         5         5         5         3      0.00405286
         2         2         5         5         5         4     -0.00000000
         2         2         5         5         5         5     -0.00584095
         2         2         6         6         1         1     -0.03405451
         2         2         6         6         1         2      0.00354268
         2         2         6         6         1         3      0.00936876
         2         2         6         6         2         1      0.00354268
         2         2         6         6         2         2     -0.00194498
         2         2         6         6         2         3     -0.00064283
         2         2         6         6         3         1      0.00936876
         2         2         6         6         3         2     -0.00064283
         2         2         6         6         3         3     -0.00630610
         2         2         7         7         1         1     -0.03405451
         2         2         7         7         1         2      0.00354268
         2         2         7         7         1         3      0.00936876
         2         2         7         7         2         1      0.00354268
         2         2         7         7         2         2     -0.00194498
         2         2         7         7         2         3     -0.00064283
         2         2         7         7         3         1      0.00936876
         2         2         7         7         3         2     -0.00064283
         2         2         7         7         3         3     -0.00630610
         2         2         8         8         1         1     -0.00078982
         3         3         1         1         1         1     -0.00344902
         3         3         1         1         1         2      0.00245222
         3         3         1         1         1         3     -0.00158435
         3         3         1         1         1         4      0.00157766
         3         3         1         1         2         1      0.00245222
         3         3         1         1         2         2     -0.00756335
         3         3         1         1         2         3     -0.00338666
         3         3         1         1         2         4     -0.00015784
         3         3         1         1         3         1     -0.00158435
         3         3         1         1         3         2     -0.00338666
         3         3         1         1         3         3     -0.00848470
         3         3         1         1         3         4      0.00347431
         3         3         1         1         4         1      0.00157766
         3         3         1         1         4         2     -0.00015784
         3         3         1         1         4         3      0.00347431
         3         3         1         1         4         4     -0.00281682
         3         3         2         2         1         1     -0.01836066
         3         3         2         2         1         2      0.00093589
         3         3         2         2         2         1      0.00093589
         3         3         2         2         2         2     -0.01087902
         3         3         3         3         1         1     -0.00087647
         3         3         3         3         1         2     -0.00014307
         3         3         3         3         2         1     -0.00014307
         3         3         3         3         2         2     -0.00069897
         3         3         4         4         1         1     -0.00848470
         3         3         5         5         1         1     -0.02339875
         3         3         5         5         1         2      0.00315425
         3         3         5         5         1         3      0.00156844
         3         3         5         5         1         4     -0.00502409
         3         3         5         5         1         5      0.00077624
         3         3         5         5         2         1      0.00315425
         3         3         5         5         2         2     -0.00185724
         3         3         5         5         2         3      0.00090772
         3         3         5         5         2         4     -0.00054333
         3         3         5         5         2         5      0.00068971
         3         3         5         5         3         1      0.00156844
         3         3         5         5         3         2      0.00090772
         3         3         5         5         3         3     -0.00318335
         3         3         5         5         3         4     -0.00031964
         3         3         5         5         3         5     -0.00040894
         3         3         5         5         4         1     -0.00502409
         3         3         5         5         4         2     -0.00054333
         3         3         5         5         4         3     -0.00031964
         3         3         5         5         4         4     -0.00550107
         3         3         5         5         4         5      0.00199202
         3         3         5         5         5         1      0.00077624
         3         3         5         5         5         2      0.00068971
         3         3         5         5         5         3     -0.00040894
         3         3         5         5         5         4      0.00199202
         3         3         5         5         5         5     -0.00111465
         3         3         6         6         1         1     -0.23729035
         3         3         6         6         1         2      0.03609838
         3         3         6         6         1         3     -0.00411925
         3         3         6         6         2         1      0.03609838
         3         3         6         6         2         2     -0.01439158
         3         3         6         6         2         3      0.00124910
         3         3         6         6         3         1     -0.00411925
         3         3         6         6         3         2      0.00124910
         3         3         6         6         3         3     -0.00456070
         3         3         7         7         1         1     -0.03642194
         3         3         7         7         1         2      0.00442876
         3         3         7         7         1         3     -0.00091042
         3         3         7         7         2         1      0.00442876
         3         3         7         7         2         2     -0.00074319
         3         3         7         7         2         3      0.00005211
         3         3         7         7         3         1     -0.00091042
         3         3         7         7         3         2      0.00005211
         3         3         7         7         3         3     -0.00019293
         3         3         8         8         1         1     -0.00550107
         4         4         1         1         1         1     -0.00344902
         4         4         1         1         1         2      0.00245222
         4         4         1         1         1         3      0.00158435
         4         4         1         1         1         4      0.00157766
         4         4         1         1         2         1      0.00245222
         4         4         1         1         2         2     -0.00756335
         4         4         1         1         2         3      0.00338666
         4         4         1         1         2         4     -0.00015784
         4         4         1         1         3         1      0.00158435
         4         4         1         1         3         2      0.00338666
         4         4         1         1         3         3     -0.00848470
         4         4         1         1         3         4     -0.00347431
         4         4         1         1         4         1      0.00157766
         4         4         1         1         4         2     -0.00015784
         4         4         1         1         4         3     -0.00347431
         4         4         1         1         4         4     -0.00281682
         4         4         2         2         1         1     -0.00087647
         4         4         2         2         1         2     -0.00014307
         4         4         2         2         2         1     -0.00014307
         4         4         2         2         2         2     -0.00069897
         4         4         3         3         1         1     -0.01836066
         4         4         3         3         1         2      0.00093589
         4         4         3         3         2         1      0.00093589
         4         4         3         3         2         2     -0.01087902
         4         4         4         4         1         1     -0.00848470
         4         4         5         5         1         1     -0.02339875
         4         4         5         5         1         2      0.00315425
         4         4         5         5         1         3      0.00156844
         4         4         5         5         1         4      0.00502409
         4         4         5         5         1         5      0.00077624
         4         4         5         5         2         1      0.00315425
         4         4         5         5         2         2     -0.00185724
         4         4         5         5         2         3      0.00090772
         4         4         5         5         2         4      0.00054333
         4         4         5         5         2         5      0.00068971
         4         4         5         5         3         1      0.00156844
         4         4         5         5         3         2      0.00090772
         4         4         5         5         3         3     -0.00318335
         4         4         5         5         3         4      0.00031964
         4         4         5         5         3         5     -0.00040894
         4         4         5         5         4         1      0.00502409
         4         4         5         5         4         2      0.00054333
         4         4         5         5         4         3      0.00031964
         4         4         5         5         4         4     -0.00550107
         4         4         5         5         4         5     -0.00199202
         4         4         5         5         5         1      0.00077624
         4         4         5         5         5         2      0.00068971
         4         4         5         5         5         3     -0.00040894
         4         4         5         5         5         4     -0.00199202
         4         4         5         5         5         5     -0.00111465
         4         4         6         6         1         1     -0.03642194
         4         4         6         6         1         2      0.00442876
         4         4         6         6         1         3     -0.00091042
         4         4         6         6         2         1      0.00442876
         4         4         6         6         2         2     -0.00074319
         4         4         6         6         2         3      0.00005211
         4         4         6         6         3         1     -0.00091042
         4         4         6         6         3         2      0.00005211
         4         4         6         6         3         3     -0.00019293
         4         4         7         7         1         1     -0.23729035
         4         4         7         7         1         2      0.03609838
         4         4         7         7         1         3     -0.00411925
         4         4         7         7         2         1      0.03609838
         4         4         7         7         2         2     -0.01439158
         4         4         7         7         2         3      0.00124910
         4         4         7         7         3         1     -0.00411925
         4         4         7         7         3         2      0.00124910
         4         4         7         7         3         3     -0.00456070
         4         4         8         8         1         1     -0.00550107
         5         5         1         1         1         1     -0.01417101
         5         5         1         1         1         2      0.00342575
         5         5         1         1         1         3      0.00000000
         5         5         1         1         1         4      0.00018773
         5         5         1         1         2         1      0.00342575
         5         5         1         1         2         2     -0.00370213
         5         5         1         1         2         3     -0.00000000
         5         5         1         1         2         4      0.00139529
         5         5         1         1         3         1      0.00000000
         5         5         1         1         3         2     -0.00000000
         5         5         1         1         3         3     -0.00674529
         5         5         1         1         3         4     -0.00000000
         5         5         1         1         4         1      0.00018773
         5         5         1         1         4         2      0.00139529
         5         5         1         1         4         3     -0.00000000
         5         5         1         1         4         4     -0.00731486
         5         5         2         2         1         1     -0.00640455
         5         5         2         2         1         2     -0.00236711
         5         5         2         2         2         1     -0.00236711
         5         5         2         2         2         2     -0.00783890
         5         5         3         3         1         1     -0.00640455
         5         5         3         3         1         2     -0.00236711
         5         5         3         3         2         1     -0.00236711
         5         5         3         3         2         2     -0.00783890
         5         5         4         4         1         1     -0.00674529
         5         5         5         5         1         1     -0.02695773
         5         5         5         5         1         2      0.00594179
         5         5         5         5         1         3      0.00066681
         5         5         5         5         1         4     -0.00000000
         5         5         5         5         1         5      0.00478231
         5         5         5         5         2         1      0.00594179
         5         5         5         5         2         2     -0.01321893
         5         5         5         5         2         3      0.00591895
         5         5         5         5         2         4      0.00000000
         5         5         5         5         2         5     -0.00020853
         5         5         5         5         3         1      0.00066681
         5         5         5         5         3         2      0.00591895
         5         5         5         5         3         3     -0.00667323
         5         5         5         5         3         4      0.00000000
         5         5         5         5         3         5      0.00079714
         5         5         5         5         4         1     -0.00000000
         5         5         5         5         4         2      0.00000000
         5         5         5         5         4         3      0.00000000
         5         5         5         5         4         4     -0.00556811
         5         5         5         5         4         5      0.00000000
         5         5         5         5         5         1      0.00478231
         5         5         5         5         5         2     -0.00020853
         5         5         5         5         5         3      0.00079714
         5         5         5         5         5         4      0.00000000
         5         5         5         5         5         5     -0.00388058
         5         5         6         6         1         1     -0.04397086
         5         5         6         6         1         2      0.00997558
         5         5         6         6         1         3      0.00590846
         5         5         6         6         2         1      0.00997558
         5         5         6         6         2         2     -0.00580027
         5         5         6         6         2         3     -0.00074126
         5         5         6         6         3         1      0.00590846
         5         5         6         6         3         2     -0.00074126
         5         5         6         6         3         3     -0.00520039
         5         5         7         7         1         1     -0.04397086
         5         5         7         7         1         2      0.00997558
         5         5         7         7         1         3      0.00590846
         5         5         7         7         2         1      0.00997558
         5         5         7         7         2         2     -0.00580027
         5         5         7         7         2         3     -0.00074126
         5         5         7         7         3         1      0.00590846
         5         5         7         7         3         2     -0.00074126
         5         5         7         7         3         3     -0.00520039
         5         5         8         8         1         1     -0.00556811
         3         1         1         2         1         1      0.00467699
         3         1         1         2         1         2      0.00068547
         3         1         1         2         2         1     -0.00468161
         3         1         1         2         2         2     -0.00172611
         3         1         1         2         3         1      0.00233224
         3         1         1         2         3         2     -0.00238154
         3         1         1         2         4         1     -0.00272339
         3         1         1         2         4         2     -0.00032798
         3         1         2         1         1         1      0.00927782
         3         1         2         1         1         2     -0.01213824
         3         1         2         1         1         3      0.00107150
         3         1         2         1         1         4     -0.00334760
         3         1         2         1         2         1      0.00158097
         3         1         2         1         2         2      0.00197848
         3         1         2         1         2         3     -0.00037152
         3         1         2         1         2         4     -0.00287808
         3         1         3         4         1         1      0.00107150
         3         1         3         4         2         1     -0.00037152
         3         1         4         3         1         1      0.00233224
         3         1         4         3         1         2     -0.00238154
         3         1         5         6         1         1     -0.02980470
         3         1         5         6         1         2      0.00900834
         3         1         5         6         1         3     -0.00756758
         3         1         5         6         2         1     -0.00058412
         3         1         5         6         2         2      0.00128204
         3         1         5         6         2         3      0.00216515
         3         1         5         6         3         1      0.00165472
         3         1         5         6         3         2     -0.00371886
         3         1         5         6         3         3      0.00039987
         3         1         5         6         4         1     -0.01555938
         3         1         5         6         4         2      0.00378276
         3         1         5         6         4         3     -0.00108848
         3         1         5         6         5         1      0.00556412
         3         1         5         6         5         2     -0.00165874
         3         1         5         6         5         3     -0.00029107
         3         1         6         5         1         1     -0.03011712
         3         1         6         5         1         2     -0.00030476
         3         1         6         5         1         3      0.00705498
         3         1         6         5         1         4     -0.00867913
         3         1         6         5         1         5      0.00269611
         3         1         6         5         2         1      0.01551564
         3         1         6         5         2         2      0.00105183
         3         1         6         5         2         3     -0.00879461
         3         1         6         5         2         4      0.00183525
         3         1         6         5         2         5     -0.00053700
         3         1         6         5         3         1     -0.01140037
         3         1         6         5         3         2      0.00400160
         3         1         6         5         3         3      0.00082137
         3         1         6         5         3         4     -0.00052709
         3         1         6         5         3         5     -0.00085765
         3         1         7         8         1         1     -0.00867913
         3         1         7         8         2         1      0.00183525
         3         1         7         8         3         1     -0.00052709
         3         1         8         7         1         1     -0.01555938
         3         1         8         7         1         2      0.00378276
         3         1         8         7         1         3     -0.00108848
         3         2         1         2         1         1     -0.00378591
         3         2         1         2         1         2     -0.00199279
         3         2         1         2         2         1     -0.00043455
         3         2         1         2         2         2     -0.00209713
         3         2         1         2         3         1     -0.00187249
         3         2         1         2         3         2     -0.00859644
         3         2         1         2         4         1      0.00114877
         3         2         1         2         4         2      0.00173667
         3         2         2         1         1         1     -0.01530907
         3         2         2         1         1         2     -0.00560133
         3         2         2         1         1         3     -0.00102510
         3         2         2         1         1         4     -0.00097713
         3         2         2         1         2         1     -0.00019659
         3         2         2         1         2         2      0.00594442
         3         2         2         1         2         3     -0.00198067
         3         2         2         1         2         4     -0.00803284
         3         2         3         4         1         1     -0.00102510
         3         2         3         4         2         1     -0.00198067
         3         2         4         3         1         1     -0.00187249
         3         2         4         3         1         2     -0.00859644
         3         2         5         6         1         1     -0.02651327
         3         2         5         6         1         2      0.00524017
         3         2         5         6         1         3     -0.00214057
         3         2         5         6         2         1      0.01247790
         3         2         5         6         2         2     -0.00467413
         3         2         5         6         2         3     -0.00117336
         3         2         5         6         3         1      0.00339112
         3         2         5         6         3         2      0.00133670
         3         2         5         6         3         3      0.00081762
         3         2         5         6         4         1      0.00755769
         3         2         5         6         4         2     -0.00005772
         3         2         5         6         4         3     -0.00463279
         3         2         5         6         5         1     -0.00508895
         3         2         5         6         5         2      0.00108460
         3         2         5         6         5         3      0.00097454
         3         2         6         5         1         1     -0.06417528
         3         2         6         5         1         2      0.02550468
         3         2         6         5         1         3      0.00210072
         3         2         6         5         1         4      0.00393529
         3         2         6         5         1         5     -0.00363998
         3         2         6         5         2         1      0.01570074
         3         2         6         5         2         2     -0.01530611
         3         2         6         5         2         3      0.00041251
         3         2         6         5         2         4     -0.00041034
         3         2         6         5         2         5      0.00286313
         3         2         6         5         3         1      0.00296897
         3         2         6         5         3         2     -0.00184532
         3         2         6         5         3         3      0.00322887
         3         2         6         5         3         4     -0.00103661
         3         2         6         5         3         5     -0.00320930
         3         2         7         8         1         1      0.00393529
         3         2         7         8         2         1     -0.00041034
         3         2         7         8         3         1     -0.00103661
         3         2         8         7         1         1      0.00755769
         3         2         8         7         1         2     -0.00005772
         3         2         8         7         1         3     -0.00463279
         4         1         1         3         1         1      0.00467699
         4         1         1         3         1         2      0.00068547
         4         1         1         3         2         1     -0.00468161
         4         1         1         3         2         2     -0.00172611
         4         1         1         3         3         1     -0.00233224
         4         1         1         3         3         2      0.00238154
         4         1         1         3         4         1     -0.00272339
         4         1         1         3         4         2     -0.00032798
         4         1         2         4         1         1      0.00107150
         4         1         2         4         2         1     -0.00037152
         4         1         3         1         1         1      0.00927782
         4         1         3         1         1         2     -0.01213824
         4         1         3         1         1         3     -0.00107150
         4         1         3         1         1         4     -0.00334760
         4         1         3         1         2         1      0.00158097
         4         1         3         1         2         2      0.00197848
         4         1         3         1         2         3      0.00037152
         4         1         3         1         2         4     -0.00287808
         4         1         4         2         1         1      0.00233224
         4         1         4         2         1         2     -0.00238154
         4         1         5         7         1         1     -0.02980470
         4         1         5         7         1         2      0.00900834
         4         1         5         7         1         3     -0.00756758
         4         1         5         7         2         1     -0.00058412
         4         1         5         7         2         2      0.00128204
         4         1         5         7         2         3      0.00216515
         4         1         5         7         3         1      0.00165472
         4         1         5         7         3         2     -0.00371886
         4         1         5         7         3         3      0.00039987
         4         1         5         7         4         1      0.01555938
         4         1         5         7         4         2     -0.00378276
         4         1         5         7         4         3      0.00108848
         4         1         5         7         5         1      0.00556412
         4         1         5         7         5         2     -0.00165874
         4         1         5         7         5         3     -0.00029107
         4         1         6         8         1         1     -0.00867913
         4         1         6         8         2         1      0.00183525
         4         1         6         8         3         1     -0.00052709
         4         1         7         5         1         1     -0.03011712
         4         1         7         5         1         2     -0.00030476
         4         1         7         5         1         3      0.00705498
         4         1         7         5         1         4      0.00867913
         4         1         7         5         1         5      0.00269611
         4         1         7         5         2         1      0.01551564
         4         1         7         5         2         2      0.00105183
         4         1         7         5         2         3     -0.00879461
         4         1         7         5         2         4     -0.00183525
         4         1         7         5         2         5     -0.00053700
         4         1         7         5         3         1     -0.01140037
         4         1         7         5         3         2      0.00400160
         4         1         7         5         3         3      0.00082137
         4         1         7         5         3         4      0.00052709
         4         1         7         5         3         5     -0.00085765
         4         1         8         6         1         1     -0.01555938
         4         1         8         6         1         2      0.00378276
         4         1         8         6         1         3     -0.00108848
         4         2         1         3         1         1     -0.00378591
         4         2         1         3         1         2     -0.00199279
         4         2         1         3         2         1     -0.00043455
         4         2         1         3         2         2     -0.00209713
         4         2         1         3         3         1      0.00187249
         4         2         1         3         3         2      0.00859644
         4         2         1         3         4         1      0.00114877
         4         2         1         3         4         2      0.00173667
         4         2         2         4         1         1     -0.00102510
         4         2         2         4         2         1     -0.00198067
         4         2         3         1         1         1     -0.01530907
         4         2         3         1         1         2     -0.00560133
         4         2         3         1         1         3      0.00102510
         4         2         3         1         1         4     -0.00097713
         4         2         3         1         2         1     -0.00019659
         4         2         3         1         2         2      0.00594442
         4         2         3         1         2         3      0.00198067
         4         2         3         1         2         4     -0.00803284
         4         2         4         2         1         1     -0.00187249
         4         2         4         2         1         2     -0.00859644
         4         2         5         7         1         1     -0.02651327
         4         2         5         7         1         2      0.00524017
         4         2         5         7         1         3     -0.00214057
         4         2         5         7         2         1      0.01247790
         4         2         5         7         2         2     -0.00467413
         4         2         5         7         2         3     -0.00117336
         4         2         5         7         3         1      0.00339112
         4         2         5         7         3         2      0.00133670
         4         2         5         7         3         3      0.00081762
         4         2         5         7         4         1     -0.00755769
         4         2         5         7         4         2      0.00005772
         4         2         5         7         4         3      0.00463279
         4         2         5         7         5         1     -0.00508895
         4         2         5         7         5         2      0.00108460
         4         2         5         7         5         3      0.00097454
         4         2         6         8         1         1      0.00393529
         4         2         6         8         2         1     -0.00041034
         4         2         6         8         3         1     -0.00103661
         4         2         7         5         1         1     -0.06417528
         4         2         7         5         1         2      0.02550468
         4         2         7         5         1         3      0.00210072
         4         2         7         5         1         4     -0.00393529
         4         2         7         5         1         5     -0.00363998
         4         2         7         5         2         1      0.01570074
         4         2         7         5         2         2     -0.01530611
         4         2         7         5         2         3      0.00041251
         4         2         7         5         2         4      0.00041034
         4         2         7         5         2         5      0.00286313
         4         2         7         5         3         1      0.00296897
         4         2         7         5         3         2     -0.00184532
         4         2         7         5         3         3      0.00322887
         4         2         7         5         3         4      0.00103661
         4         2         7         5         3         5     -0.00320930
         4         2         8         6         1         1      0.00755769
         4         2         8         6         1         2     -0.00005772
         4         2         8         6         1         3     -0.00463279
         4         3         1         4         1         1     -0.00158435
         4         3         1         4         2         1     -0.00338666
         4         3         1         4         3         1      0.00617234
         4         3         1         4         4         1      0.00347431
         4         3         2         3         1         1     -0.00141220
         4         3         2         3         1         2      0.00012995
         4         3         2         3         2         1      0.00012995
         4         3         2         3         2         2     -0.00125534
         4         3         3         2         1         1     -0.01607199
         4         3         3         2         1         2      0.00094901
         4         3         3         2         2         1      0.00094901
         4         3         3         2         2         2     -0.00892471
         4         3         4         1         1         1     -0.00158435
         4         3         4         1         1         2     -0.00338666
         4         3         4         1         1         3     -0.00617234
         4         3         4         1         1         4      0.00347431
         4         3         5         8         1         1     -0.00502409
         4         3         5         8         2         1     -0.00054333
         4         3         5         8         3         1     -0.00031964
         4         3         5         8         4         1      0.00405940
         4         3         5         8         5         1      0.00199202
         4         3         6         7         1         1     -0.08909323
         4         3         6         7         1         2      0.01137661
         4         3         6         7         1         3     -0.00248916
         4         3         6         7         2         1      0.01137661
         4         3         6         7         2         2     -0.00214219
         4         3         6         7         2         3      0.00037393
         4         3         6         7         3         1     -0.00248916
         4         3         6         7         3         2      0.00037393
         4         3         6         7         3         3     -0.00074825
         4         3         7         6         1         1     -0.11177519
         4         3         7         6         1         2      0.02029301
         4         3         7         6         1         3     -0.00071967
         4         3         7         6         2         1      0.02029301
         4         3         7         6         2         2     -0.01150620
         4         3         7         6         2         3      0.00082305
         4         3         7         6         3         1     -0.00071967
         4         3         7         6         3         2      0.00082305
         4         3         7         6         3         3     -0.00361952
         4         3         8         5         1         1     -0.00502409
         4         3         8         5         1         2     -0.00054333
         4         3         8         5         1         3     -0.00031964
         4         3         8         5         1         4     -0.00405940
         4         3         8         5         1         5      0.00199202
         5         1         1         5         1         1     -0.00365995
         5         1         1         5         1         2     -0.00503037
         5         1         1         5         1         3      0.00560762
         5         1         1         5         1         4      0.00000000
         5         1         1         5         1         5      0.00093431
         5         1         1         5         2         1      0.00614688
         5         1         1         5         2         2     -0.00114703
         5         1         1         5         2         3     -0.00540110
         5         1         1         5         2         4     -0.00000000
         5         1         1         5         2         5      0.00161260
         5         1         1         5         3         1      0.00000000
         5         1         1         5         3         2     -0.00000000
         5         1         1         5         3         3     -0.00000000
         5         1         1         5         3         4     -0.00569227
         5         1         1         5         3         5     -0.00000000
         5         1         1         5         4         1      0.00833354
         5         1         1         5         4         2     -0.00173691
         5         1         1         5         4         3     -0.00019179
         5         1         1         5         4         4     -0.00000000
         5         1         1         5         4         5     -0.00295250
         5         1         2         6         1         1      0.01135185
         5         1         2         6         1         2     -0.00595723
         5         1         2         6         1         3      0.00001379
         5         1         2         6         2         1      0.00461672
         5         1         2         6         2         2      0.00014500
         5         1         2         6         2         3     -0.00451494
         5         1         3         7         1         1      0.01135185
         5         1         3         7         1         2     -0.00595723
         5         1         3         7         1         3      0.00001379
         5         1         3         7         2         1      0.00461672
         5         1         3         7         2         2      0.00014500
         5         1         3         7         2         3     -0.00451494
         5         1         4         8         1         1     -0.00569227
         5         1         5         1         1         1     -0.00068845
         5         1         5         1         1         2      0.00717543
         5         1         5         1         1         3      0.00000000
         5         1         5         1         1         4      0.00268800
         5         1         5         1         2         1     -0.00726987
         5         1         5         1         2         2      0.00132176
         5         1         5         1         2         3     -0.00000000
         5         1         5         1         2         4      0.00085235
         5         1         5         1         3         1      0.00450585
         5         1         5         1         3         2     -0.00820059
         5         1         5         1         3         3     -0.00000000
         5         1         5         1         3         4      0.00065462
         5         1         5         1         4         1      0.00000000
         5         1         5         1         4         2     -0.00000000
         5         1         5         1         4         3     -0.00654640
         5         1         5         1         4         4     -0.00000000
         5         1         5         1         5         1      0.00115667
         5         1         5         1         5         2      0.00155043
         5         1         5         1         5         3     -0.00000000
         5         1         5         1         5         4     -0.00434648
         5         1         6         2         1         1      0.00918616
         5         1         6         2         1         2     -0.00140242
         5         1         6         2         2         1     -0.00585626
         5         1         6         2         2         2      0.00171128
         5         1         6         2         3         1     -0.00093525
         5         1         6         2         3         2     -0.00617705
         5         1         7         3         1         1      0.00918616
         5         1         7         3         1         2     -0.00140242
         5         1         7         3         2         1     -0.00585626
         5         1         7         3         2         2      0.00171128
         5         1         7         3         3         1     -0.00093525
         5         1         7         3         3         2     -0.00617705
         5         1         8         4         1         1     -0.00654640
         5         2         1         5         1         1     -0.01186716
         5         2         1         5         1         2      0.01876349
         5         2         1         5         1         3     -0.00349440
         5         2         1         5         1         4     -0.00000000
         5         2         1         5         1         5      0.00025226
         5         2         1         5         2         1      0.01259468
         5         2         1         5         2         2     -0.00642733
         5         2         1         5         2         3     -0.00062995
         5         2         1         5         2         4      0.00000000
         5         2         1         5         2         5     -0.00037039
         5         2         1         5         3         1     -0.00000000
         5         2         1         5         3         2      0.00000000
         5         2         1         5         3         3      0.00000000
         5         2         1         5         3         4      0.00225760
         5         2         1         5         3         5      0.00000000
         5         2         1         5         4         1     -0.00581884
         5         2         1         5         4         2      0.00171617
         5         2         1         5         4         3     -0.00325011
         5         2         1         5         4         4      0.00000000
         5         2         1         5         4         5      0.00491218
         5         2         2         6         1         1     -0.00646098
         5         2         2         6         1         2      0.00223869
         5         2         2         6         1         3      0.00395599
         5         2         2         6         2         1     -0.01287556
         5         2         2         6         2         2      0.00184067
         5         2         2         6         2         3      0.00513266
         5         2         3         7         1         1     -0.00646098
         5         2         3         7         1         2      0.00223869
         5         2         3         7         1         3      0.00395599
         5         2         3         7         2         1     -0.01287556
         5         2         3         7         2         2      0.00184067
         5         2         3         7         2         3      0.00513266
         5         2         4         8         1         1      0.00225760
         5         2         5         1         1         1     -0.00021309
         5         2         5         1         1         2      0.01541691
         5         2         5         1         1         3     -0.00000000
         5         2         5         1         1         4     -0.01548507
         5         2         5         1         2         1      0.01649708
         5         2         5         1         2         2     -0.00214119
         5         2         5         1         2         3      0.00000000
         5         2         5         1         2         4      0.00677305
         5         2         5         1         3         1     -0.00877466
         5         2         5         1         3         2     -0.00386956
         5         2         5         1         3         3      0.00000000
         5         2         5         1         3         4     -0.00293016
         5         2         5         1         4         1     -0.00000000
         5         2         5         1         4         2      0.00000000
         5         2         5         1         4         3      0.00220601
         5         2         5         1         4         4      0.00000000
         5         2         5         1         5         1     -0.00023138
         5         2         5         1         5         2     -0.00087960
         5         2         5         1         5         3      0.00000000
         5         2         5         1         5         4      0.00318359
         5         2         6         2         1         1     -0.00638220
         5         2         6         2         1         2     -0.02314122
         5         2         6         2         2         1      0.00250398
         5         2         6         2         2         2      0.00413873
         5         2         6         2         3         1      0.00230794
         5         2         6         2         3         2      0.00360588
         5         2         7         3         1         1     -0.00638220
         5         2         7         3         1         2     -0.02314122
         5         2         7         3         2         1      0.00250398
         5         2         7         3         2         2      0.00413873
         5         2         7         3         3         1      0.00230794
         5         2         7         3         3         2      0.00360588
         5         2         8         4         1         1      0.00220601
         5         3         1         6         1         1     -0.01643932
         5         3         1         6         1         2      0.01269074
         5         3         1         6         1         3      0.00213832
         5         3         1         6         2         1      0.00665390
         5         3         1         6         2         2     -0.00618486
         5         3         1         6         2         3     -0.00079432
         5         3         1         6         3         1     -0.01062817
         5         3         1         6         3         2      0.00204193
         5         3         1         6         3         3      0.00004937
         5         3         1         6         4         1      0.00954596
         5         3         1         6         4         2     -0.00374803
         5         3         1         6         4         3      0.00268732
         5         3         2         5         1         1      0.00509350
         5         3         2         5         1         2      0.00310261
         5         3         2         5         1         3     -0.00411089
         5         3         2         5         1         4      0.00374454
         5         3         2         5         1         5     -0.00217066
         5         3         2         5         2         1     -0.00594209
         5         3         2         5         2         2      0.00281782
         5         3         2         5         2         3      0.00069290
         5         3         2         5         2         4      0.00276056
         5         3         2         5         2         5     -0.00128902
         5         3         3         8         1         1      0.00374454
         5         3         3         8         2         1      0.00276056
         5         3         4         7         1         1     -0.01062817
         5         3         4         7         1         2      0.00204193
         5         3         4         7         1         3      0.00004937
         5         3         5         2         1         1      0.00604483
         5         3         5         2         1         2     -0.01763050
         5         3         5         2         2         1      0.01043730
         5         3         5         2         2         2      0.00523567
         5         3         5         2         3         1     -0.01119975
         5         3         5         2         3         2      0.00048428
         5         3         5         2         4         1      0.00152743
         5         3         5         2         4         2      0.00048970
         5         3         5         2         5         1     -0.00207715
         5         3         5         2         5         2      0.00014245
         5         3         6         1         1         1     -0.01105666
         5         3         6         1         1         2     -0.00314204
         5         3         6         1         1         3     -0.02141461
         5         3         6         1         1         4      0.01385004
         5         3         6         1         2         1      0.00644999
         5         3         6         1         2         2     -0.00331043
         5         3         6         1         2         3      0.00382223
         5         3         6         1         2         4     -0.00322894
         5         3         6         1         3         1      0.00134126
         5         3         6         1         3         2     -0.00077138
         5         3         6         1         3         3      0.00064695
         5         3         6         1         3         4     -0.00003524
         5         3         7         4         1         1     -0.02141461
         5         3         7         4         2         1      0.00382223
         5         3         7         4         3         1      0.00064695
         5         3         8         3         1         1      0.00152743
         5         3         8         3         1         2      0.00048970
         5         4         1         7         1         1     -0.01643932
         5         4         1         7         1         2      0.01269074
         5         4         1         7         1         3      0.00213832
         5         4         1         7         2         1      0.00665390
         5         4         1         7         2         2     -0.00618486
         5         4         1         7         2         3     -0.00079432
         5         4         1         7         3         1      0.01062817
         5         4         1         7         3         2     -0.00204193
         5         4         1         7         3         3     -0.00004937
         5         4         1         7         4         1      0.00954596
         5         4         1         7         4         2     -0.00374803
         5         4         1         7         4         3      0.00268732
         5         4         2         8         1         1      0.00374454
         5         4         2         8         2         1      0.00276056
         5         4         3         5         1         1      0.00509350
         5         4         3         5         1         2      0.00310261
         5         4         3         5         1         3     -0.00411089
         5         4         3         5         1         4     -0.00374454
         5         4         3         5         1         5     -0.00217066
         5         4         3         5         2         1     -0.00594209
         5         4         3         5         2         2      0.00281782
         5         4         3         5         2         3      0.00069290
         5         4         3         5         2         4     -0.00276056
         5         4         3         5         2         5     -0.00128902
         5         4         4         6         1         1     -0.01062817
         5         4         4         6         1         2      0.00204193
         5         4         4         6         1         3      0.00004937
         5         4         5         3         1         1      0.00604483
         5         4         5         3         1         2     -0.01763050
         5         4         5         3         2         1      0.01043730
         5         4         5         3         2         2      0.00523567
         5         4         5         3         3         1     -0.01119975
         5         4         5         3         3         2      0.00048428
         5         4         5         3         4         1     -0.00152743
         5         4         5         3         4         2     -0.00048970
         5         4         5         3         5         1     -0.00207715
         5         4         5         3         5         2      0.00014245
         5         4         6         4         1         1     -0.02141461
         5         4         6         4         2         1      0.00382223
         5         4         6         4         3         1      0.00064695
         5         4         7         1         1         1     -0.01105666
         5         4         7         1         1         2     -0.00314204
         5         4         7         1         1         3      0.02141461
         5         4         7         1         1         4      0.01385004
         5         4         7         1         2         1      0.00644999
         5         4         7         1         2         2     -0.00331043
         5         4         7         1         2         3     -0.00382223
         5         4         7         1         2         4     -0.00322894
         5         4         7         1         3         1      0.00134126
         5         4         7         1         3         2     -0.00077138
         5         4         7         1         3         3     -0.00064695
         5         4         7         1         3         4     -0.00003524
         5         4         8         2         1         1      0.00152743
         5         4         8         2         1         2      0.00048970


 RESULTS
 =======

  Reference energy                   -108.606225806201
  CCSD singlet pair energy             -0.330090996991
  CCSD triplet pair energy             -0.104704947518
  CCSD correlation energy              -0.434795944796

 !CCSD total energy                  -109.041021750997

 Timing summary (sec):

 STEP                 CPU(USER)    SYS     CPU(TOT)    WALL
 Transformation          0.01      0.01      0.02      0.02
 CCSD iterations         0.10      0.02      0.12      0.11

 Program statistics:

 Available memory in ccsd:                39999100
 Min. memory needed in ccsd:                  4777
 Max. memory used in ccsd:                    5237
 Max. memory used in cckext:                 37677 (27 integral passes)



 **********************************************************************************************************************************
 DATASETS  * FILE   NREC   LENGTH (MB)   RECORD NAMES
              1      20       30.10       500      700      610      900      950      970     1000      129      960     1100   
                                          VAR     GEOM    BASINP   SYMINP    ZMAT    AOBASIS   BASIS     P2S    ABASIS      S 
                                         1400     1410     1200     1210     1080     1600     1650     1300     1700     1380   
                                           T        V       H0       H01     AOSYM     SMH    MOLCAS    ERIS     OPER     JKOP   

              3       5       14.77       500      610      700     1000     2100   
                                          VAR    BASINP    GEOM     BASIS     RHF  

 PROGRAMS   *        TOTAL      CCSD       INT   RESTART
 CPU TIMES  *         0.45      0.18      0.15      0.01
 REAL TIME  *         0.68 SEC
 DISK USED  *        49.46 MB
 **********************************************************************************************************************************
 Molecular orbitals read from record     2100.3  Type=RHF/CANONICAL (state 1.1)
 Occupation numbers read from record     2100.3  Type=RHF/RHF (state 1.1)
 Orbital energies read from record       2100.3  Type=RHF/CANONICAL (state 1.1)
 Redundancy group numbers read from rec  2100.3  Type=RHF/RHF (state 1.1)

 CCSD/cc-pVDZ energy=   -109.041021750997

            CCSD
   -109.04102175
 **********************************************************************************************************************************
 Molpro calculation terminated
