
 Primary working directories    : /scr/yuriaoto/job.023513/molpro.VNbazBAM7N
 Secondary working directories  : /scr/yuriaoto/job.023513/molpro.VNbazBAM7N
 Wavefunction directory         : /scr/yuriaoto/job.023513/
 Main file repository           : /scr/yuriaoto/job.023513/molpro.VNbazBAM7N/

 id        : yuriaoto

 Nodes             nprocs
 t-rex.ufabc.int.br    1

 Using customized tuning parameters: mindgm=8; mindgv=16; mindgc=1; mindgr=1; noblas=0; minvec=7
 default implementation of scratch files=df  


 Variables initialized (933), CPU time= 0.00 sec
 ***,
 memory,40,m
 gprint,orbital,basis,civector
 gthresh,thrprint=0,printci=0.0
 file,3,wfu.dat,old
 
 {cisd,CC_NORM_MAX=20.0
 thresh,printci=0.0,ENERGY=1.0E-10,COEFF=1.0E-12
 print,ref=1
 core,0
 wf,14,1,0;
 }
 
 Commands  initialized (760), CPU time= 0.02 sec, 617 directives.
 Default parameters read. Elapsed time= 0.04 sec

 Checking input...
 Passed
1


                                         ***  PROGRAM SYSTEM MOLPRO  ***
                                       Copyright, TTI GmbH Stuttgart, 2015
                                    Version 2019.2 linked Abr  7 2019 15:10:35


 **********************************************************************************************************************************
 LABEL *                                                                                 
  64 bit serial version                                                                  DATE: 02-Jun-20          TIME: 01:03:27  
 **********************************************************************************************************************************

 SHA1:             3a8a58c585c929645742fb5a1b7541a4ad1da699
 **********************************************************************************************************************************


 THRESHOLDS:

 ZERO    =  1.00D-12  ONEINT  =  1.00D-12  TWOINT  =  1.00D-11  PREFAC  =  1.00D-14  XXXXXX  =  1.00D-09  EORDER  =  1.00D-04
 ENERGY  =  0.00D+00  ETEST   =  0.00D+00  EDENS   =  0.00D+00  THRDEDEF=  1.00D-06  GRADIENT=  1.00D-02  STEP    =  1.00D-03
 ORBITAL =  1.00D-05  CIVEC   =  1.00D-05  COEFF   =  1.00D-04  PRINTCI =  0.00D+00  PUNCHCI =  9.90D+01  OPTGRAD =  3.00D-04
 OPTENERG=  1.00D-06  OPTSTEP =  3.00D-04  THRGRAD =  1.00D-10  COMPRESS=  1.00D-11  VARMIN  =  1.00D-07  VARMAX  =  1.00D-03
 THRDOUB =  0.00D+00  THRDIV  =  1.00D-05  THRRED  =  1.00D-07  THRPSP  =  1.00D+00  THRDC   =  1.00D-10  THRCS   =  1.00D-10
 THRNRM  =  1.00D-08  THREQ   =  0.00D+00  THRDE   =  1.00D+00  THRREF  =  1.00D-05  SPARFAC =  1.00D+00  THRDLP  =  1.00D-07
 THRDIA  =  1.00D-10  THRDLS  =  1.00D-07  THRGPS  =  0.00D+00  THRKEX  =  0.00D+00  THRDIS  =  2.00D-01  THRVAR  =  1.00D-10
 THRLOC  =  1.00D-06  THRGAP  =  1.00D-06  THRLOCT = -1.00D+00  THRGAPT = -1.00D+00  THRORB  =  1.00D-06  THRMLTP =  0.00D+00
 THRCPQCI=  1.00D-10  KEXTA   =  0.00D+00  THRCOARS=  0.00D+00  SYMTOL  =  1.00D-06  GRADTOL =  1.00D-06  THROVL  =  1.00D-08
 THRORTH =  1.00D-08  GRID    =  1.00D-06  GRIDMAX =  1.00D-03  DTMAX   =  0.00D+00  THROCCDE=  1.00D-01  THROCCDE=  1.00D-01
 THRPRINT=  0.00D+00


 Variable memory set to   40000000 words,  buffer space 



 Permanent file  3  wfu.dat  assigned.  Implementation=df    Size= 14.09 MB


 PROGRAM * RESTART 


 Reading variables from file 3

 _FNUC           =      0.00000000
 _BASIS          =    CC-PVDZ
 _NELEC          =     14.00000000
 _PROGRAM        =    RHF-SCF
 _DMX_SCF        =      0.00000000
 _DMY_SCF        =      0.00000000
 _DMZ_SCF        =      0.00000000
 _HOMO           =      1.20000000
 _EHOMO          =     -0.46392077
 _LUMO           =      1.60000000
 _ELUMO          =     -0.00944908
 _ENERGY         =   -108.60622581
 _ENERGY_METHOD  =    RHF
 _ENERGY_BASIS   =    cc-pVDZ
 _ENUC           =     16.33333333
 _EPS1(1:7)      =    -15.79676678    -1.19737912    -0.55506402     0.94628654     1.05507753     1.91447057
                        2.03771558
 _EPS2(1:3)      =     -0.46392077     0.91310838     1.72264736
 _EPS3(1:3)      =     -0.46392077     0.91310838     1.72264736
 _EPS4           =      1.91447057
 _EPS5(1:7)      =    -15.79614860    -0.90460729     0.23671206     0.86826039     1.39142551     2.07157051
                        3.02778440
 _EPS6(1:3)      =     -0.00944908     0.99822150     2.45091804
 _EPS7(1:3)      =     -0.00944908     0.99822150     2.45091804
 _EPS8           =      2.07157051
 _IPROC_MPP      =      0.00000000
 _IPROC_MPPX     =      0.00000000
 _ORBITAL        =   2100.30000000
 _STATUS         =      1.00000000
 _DATE           =    23-Mar-20
 _LASTORB        =    RHF
 _OUTPUT         =    /scr/yuriaoto/job.022817/RHF.xml
 _PGROUP         =    D2h 
 _TIME           =    14:41:20
 R               =      3.00000000

 Geometry written to block  1 of record 700


 **********************************************************************************************************************************
 DATASETS  * FILE   NREC   LENGTH (MB)   RECORD NAMES
              3       5       14.77       500      610      700     1000     2100   
                                          VAR    BASINP    GEOM     BASIS     RHF  

 PROGRAMS   *        TOTAL   RESTART
 CPU TIMES  *         0.13      0.02
 REAL TIME  *         0.14 SEC
 DISK USED  *        26.84 MB
 **********************************************************************************************************************************


 Recomputing integrals since basis changed


 Using spherical harmonics

 Library entry N      S cc-pVDZ              selected for orbital group  1
 Library entry N      P cc-pVDZ              selected for orbital group  1
 Library entry N      D cc-pVDZ              selected for orbital group  1


 PROGRAM * SEWARD (Integral evaluation for generally contracted gaussian basis sets)     Author: Roland Lindh, 1990

 Geometry written to block  1 of record 700

 Orientation using atomic masses  
 Molecule type: Linear
 User-specified symmetry elements: X,Y,Z
 Symmetry elements: X,Y,Z
 Rotational constants:      28.6329822     28.6329822      0.0000000 GHz  (calculated with average atomic masses)

 Point group  D2h 



 ATOMIC COORDINATES

 NR  ATOM    CHARGE       X              Y              Z

   1  N1      7.00    0.000000000    0.000000000   -1.500000000
   2  N2      7.00    0.000000000    0.000000000    1.500000000

 Bond lengths in Bohr (Angstrom)

 1-2  3.000000000
     ( 1.587531633)


 BASIS DATA

   Nr Sym  Nuc  Type         Exponents   Contraction coefficients

    1.1 Ag    1  1s        9046.000000     0.000700   -0.000153    0.000000
    2.1 Ag    2  1s        1357.000000     0.005389   -0.001208    0.000000
    3.1 Ag                  309.300000     0.027406   -0.005992    0.000000
                             87.730000     0.103207   -0.024544    0.000000
                             28.560000     0.278723   -0.067459    0.000000
                             10.210000     0.448540   -0.158078    0.000000
                              3.838000     0.278238   -0.121831    0.000000
                              0.746600     0.015440    0.549003    0.000000
                              0.224800    -0.002864    0.578815    1.000000
    4.1 Ag    1  2pz         13.550000     0.039919    0.000000
    5.1 Ag    2 -2pz          2.917000     0.217169    0.000000
                              0.797300     0.510319    0.000000
                              0.218500     0.462214    1.000000
    6.1 Ag    1  3d0          0.817000     1.000000
              2  3d0   
    7.1 Ag    1  3d2+         0.817000     1.000000
              2  3d2+  
    1.2 B3u   1  2px         13.550000     0.039919    0.000000
    2.2 B3u   2  2px          2.917000     0.217169    0.000000
                              0.797300     0.510319    0.000000
                              0.218500     0.462214    1.000000
    3.2 B3u   1  3d1+         0.817000     1.000000
              2 -3d1+  
    1.3 B2u   1  2py         13.550000     0.039919    0.000000
    2.3 B2u   2  2py          2.917000     0.217169    0.000000
                              0.797300     0.510319    0.000000
                              0.218500     0.462214    1.000000
    3.3 B2u   1  3d1-         0.817000     1.000000
              2 -3d1-  
    1.4 B1g   1  3d2-         0.817000     1.000000
              2  3d2-  
    1.5 B1u   1  1s        9046.000000     0.000700   -0.000153    0.000000
    2.5 B1u   2 -1s        1357.000000     0.005389   -0.001208    0.000000
    3.5 B1u                 309.300000     0.027406   -0.005992    0.000000
                             87.730000     0.103207   -0.024544    0.000000
                             28.560000     0.278723   -0.067459    0.000000
                             10.210000     0.448540   -0.158078    0.000000
                              3.838000     0.278238   -0.121831    0.000000
                              0.746600     0.015440    0.549003    0.000000
                              0.224800    -0.002864    0.578815    1.000000
    4.5 B1u   1  2pz         13.550000     0.039919    0.000000
    5.5 B1u   2  2pz          2.917000     0.217169    0.000000
                              0.797300     0.510319    0.000000
                              0.218500     0.462214    1.000000
    6.5 B1u   1  3d0          0.817000     1.000000
              2 -3d0   
    7.5 B1u   1  3d2+         0.817000     1.000000
              2 -3d2+  
    1.6 B2g   1  2px         13.550000     0.039919    0.000000
    2.6 B2g   2 -2px          2.917000     0.217169    0.000000
                              0.797300     0.510319    0.000000
                              0.218500     0.462214    1.000000
    3.6 B2g   1  3d1+         0.817000     1.000000
              2  3d1+  
    1.7 B3g   1  2py         13.550000     0.039919    0.000000
    2.7 B3g   2 -2py          2.917000     0.217169    0.000000
                              0.797300     0.510319    0.000000
                              0.218500     0.462214    1.000000
    3.7 B3g   1  3d1-         0.817000     1.000000
              2  3d1-  
    1.8 Au    1  3d2-         0.817000     1.000000
              2 -3d2-  

 NUCLEAR CHARGE:                   14
 NUMBER OF PRIMITIVE AOS:          54
 NUMBER OF SYMMETRY AOS:           52
 NUMBER OF CONTRACTIONS:           28   (    7Ag  +    3B3u +    3B2u +    1B1g +    7B1u +    3B2g +    3B3g +    1Au  )
 NUMBER OF CORE ORBITALS:           2   (    1Ag  +    0B3u +    0B2u +    0B1g +    1B1u +    0B2g +    0B3g +    0Au  )
 NUMBER OF VALENCE ORBITALS:        8   (    2Ag  +    1B3u +    1B2u +    0B1g +    2B1u +    1B2g +    1B3g +    0Au  )


 NUCLEAR REPULSION ENERGY   16.33333333

 EXTRA SYMMETRY OF AOS IN SYMMETRY 1:   1 1 1 1 1 1 2
 EXTRA SYMMETRY OF AOS IN SYMMETRY 5:   1 1 1 1 1 1 2

 Eigenvalues of metric

         1 0.453E-01 0.160E+00 0.100E+01 0.103E+01 0.121E+01 0.168E+01 0.337E+01
         2 0.196E+00 0.113E+01 0.236E+01
         3 0.196E+00 0.113E+01 0.236E+01
         4 0.103E+01
         5 0.148E-01 0.123E+00 0.368E+00 0.923E+00 0.975E+00 0.100E+01 0.211E+01
         6 0.152E+00 0.785E+00 0.137E+01
         7 0.152E+00 0.785E+00 0.137E+01
         8 0.975E+00


 Contracted 2-electron integrals neglected if value below      1.0D-11
 AO integral compression algorithm  1   Integral accuracy      1.0D-11

     0.262 MB (compressed) written to integral file (100.0%)


 NUMBER OF SORTED TWO-ELECTRON INTEGRALS:      13015.     BUFFER LENGTH:  32768
 NUMBER OF SEGMENTS:   1  SEGMENT LENGTH:      13015      RECORD LENGTH: 524288

 Memory used in sort:       0.57 MW

 SORT1 READ       27440. AND WROTE       11779. INTEGRALS IN      1 RECORDS. CPU TIME:     0.00 SEC, REAL TIME:     0.01 SEC
 SORT2 READ       11779. AND WROTE       13015. INTEGRALS IN      1 RECORDS. CPU TIME:     0.02 SEC, REAL TIME:     0.03 SEC

 FILE SIZES:   FILE 1:    30.2 MBYTE,  FILE 4:     4.2 MBYTE,   TOTAL:     34.5 MBYTE

 OPERATOR DM      FOR CENTER  0  COORDINATES:    0.000000    0.000000    0.000000


 **********************************************************************************************************************************
 DATASETS  * FILE   NREC   LENGTH (MB)   RECORD NAMES
              1      19       30.05       500      700      610      900      950      970     1000      129      960     1100   
                                          VAR     GEOM    BASINP   SYMINP    ZMAT    AOBASIS   BASIS     P2S    ABASIS      S 
                                         1400     1410     1200     1210     1080     1600     1650     1300     1700   
                                           T        V       H0       H01     AOSYM     SMH    MOLCAS    ERIS     OPER   

              3       5       14.77       500      610      700     1000     2100   
                                          VAR    BASINP    GEOM     BASIS     RHF  

 PROGRAMS   *        TOTAL       INT   RESTART
 CPU TIMES  *         0.31      0.18      0.02
 REAL TIME  *         0.49 SEC
 DISK USED  *        49.46 MB
 **********************************************************************************************************************************


 PROGRAM * CISD (Closed-shell CI(SD))     Authors: C. Hampel, H.-J. Werner, 1991, M. Deegan, P.J. Knowles, 1992


 Input parameters for THRESH:

 ENERGY   =    1.00D-10
 COEFF    =    1.00D-12
 PRINTCI  =    0.000000
 THRPRINT =    0.000000

 Convergence thresholds:  THRVAR = 1.00D-24  THRDEN = 1.00D-10

 Number of closed-shell orbitals:   7 (   3   1   1   0   2   0   0   0 )
 Number of external orbitals:      21 (   4   2   2   1   5   3   3   1 )

 Molecular orbitals read from record     2100.3  Type=RHF/CANONICAL (state 1.1)

 Number of N-1 electron functions:               7
 Number of N-2 electron functions:              28
 Number of singly external CSFs:                26
 Number of doubly external CSFs:              1583
 Total number of CSFs:                        1610

 Length of J-op  integral file:               0.00 MB
 Length of K-op  integral file:               0.04 MB

 Integral transformation finished. Total CPU:   0.00 sec, npass=  1  Memory used:   0.07 MW

 Reference energy:                   -108.60622581

 MP2 singlet pair energy:              -0.30154336
 MP2 triplet pair energy:              -0.23073443
 MP2 correlation energy:               -0.53227780
 MP2 total energy:                   -109.13850360

 SCS-MP2 correlation energy:           -0.50542013   (PS=  1.200000  PT=  0.333333)
 SCS-MP2 total energy:               -109.11164593

 ITER.      SQ.NORM     CORR.ENERGY   TOTAL ENERGY   ENERGY CHANGE        DEN1      VAR(S)    VAR(P)  DIIS     TIME  TIME/IT
   1      1.07700333    -0.62634065  -109.23256645    -0.09406285     0.32960662  0.18D-01  0.25D+00  0  0     0.02     0.01
   2      1.26640520    -0.50049441  -109.10672022     0.12584623    -0.27172169  0.19D-01  0.17D+00  1  1     0.02     0.01
   3      1.14103269    -0.31379547  -108.92002128     0.18669894     0.11940793  0.70D-04  0.18D-03  2  2     0.03     0.01
   4      1.13239908    -0.37934469  -108.98557049    -0.06554922     0.00794268  0.18D-04  0.81D-04  3  3     0.03     0.01
   5      1.11812825    -0.37767133  -108.98389714     0.00167336     0.01327974  0.18D-04  0.41D-04  4  4     0.04     0.01
   6      1.14317446    -0.37382408  -108.98004989     0.00384725    -0.02096485  0.20D-05  0.54D-04  5  5     0.05     0.01
   7      1.18244498    -0.37966126  -108.98588707    -0.00583718    -0.02599818  0.48D-06  0.22D-04  6  6     0.05     0.01
   8      1.18080994    -0.38250318  -108.98872898    -0.00284191     0.00142253  0.37D-06  0.27D-05  6  1     0.06     0.01
   9      1.18625027    -0.38249547  -108.98872128     0.00000770    -0.00314925  0.85D-08  0.52D-06  6  2     0.06     0.01
  10      1.18709630    -0.38253612  -108.98876192    -0.00004064    -0.00039425  0.61D-08  0.51D-07  6  5     0.07     0.01
  11      1.18670422    -0.38253630  -108.98876211    -0.00000019     0.00025782  0.28D-09  0.60D-08  6  3     0.07     0.01
  12      1.18659847    -0.38253661  -108.98876242    -0.00000031     0.00006978  0.67D-10  0.34D-09  6  1     0.08     0.01
  13      1.18662776    -0.38253662  -108.98876243    -0.00000001    -0.00001647  0.56D-11  0.90D-10  6  4     0.08     0.01
  14      1.18662884    -0.38253662  -108.98876243    -0.00000000    -0.00000092  0.13D-11  0.11D-10  6  5     0.08     0.01
  15      1.18662904    -0.38253662  -108.98876243    -0.00000000    -0.00000064  0.12D-12  0.15D-11  6  6     0.09     0.01
  16      1.18662831    -0.38253662  -108.98876243    -0.00000000     0.00000031  0.26D-13  0.14D-12  6  3     0.09     0.01
  17      1.18662823    -0.38253662  -108.98876243    -0.00000000     0.00000000  0.23D-14  0.20D-13  6  2     0.09     0.01
  18      1.18662821    -0.38253662  -108.98876243    -0.00000000     0.00000002  0.84D-16  0.27D-14  6  1     0.10     0.01
  19      1.18662823    -0.38253662  -108.98876243    -0.00000000    -0.00000000  0.15D-16  0.36D-15  6  4     0.10     0.01
  20      1.18662823    -0.38253662  -108.98876243     0.00000000    -0.00000000  0.43D-17  0.15D-16  6  6     0.11     0.01
  21      1.18662823    -0.38253662  -108.98876243     0.00000000     0.00000000  0.92D-19  0.56D-18  6  5     0.11     0.01
  22      1.18662823    -0.38253662  -108.98876243     0.00000000     0.00000000  0.77D-20  0.10D-18  6  2     0.12     0.01
  23      1.18662823    -0.38253662  -108.98876243     0.00000000     0.00000000  0.28D-20  0.19D-19  6  3     0.12     0.01
  24      1.18662823    -0.38253662  -108.98876243     0.00000000     0.00000000  0.28D-21  0.19D-20  6  4     0.12     0.01
  25      1.18662823    -0.38253662  -108.98876243     0.00000000    -0.00000000  0.26D-22  0.14D-21  6  1     0.13     0.01
  26      1.18662823    -0.38253662  -108.98876243     0.00000000     0.00000000  0.30D-23  0.25D-22  6  6     0.13     0.01
  27      1.18662823    -0.38253662  -108.98876243     0.00000000    -0.00000000  0.23D-24  0.33D-23  6  5     0.13     0.01
  28      1.18662823    -0.38253662  -108.98876243     0.00000000    -0.00000000  0.54D-25  0.69D-24  6  2     0.14     0.01


 ! DIPOLE MOMENTS:                      0.00000000     0.00000000     0.00000000



 Norm of t1 vector:      0.08290216      S-energy:    -0.00221559      T1 diagnostic:  0.01566704

 Singles amplitudes (print threshold =  0.000E+00):

         I         SYM. A    A   T(IA)

         1         1         1      0.00029924
         1         1         2     -0.00022024
         1         1         3     -0.00000000
         1         1         4     -0.00009867
         2         1         1     -0.00433257
         2         1         2     -0.00219259
         2         1         3      0.00000000
         2         1         4     -0.00458067
         3         1         1     -0.00261097
         3         1         2     -0.01188942
         3         1         3     -0.00000000
         3         1         4     -0.01095310
         4         2         1     -0.03587132
         4         2         2     -0.00782508
         5         3         1     -0.03587132
         5         3         2     -0.00782508
         6         5         1      0.00013547
         6         5         2      0.00016745
         6         5         3     -0.00026303
         6         5         4     -0.00000000
         6         5         5     -0.00003034
         7         5         1      0.01942474
         7         5         2     -0.00697358
         7         5         3     -0.00087530
         7         5         4     -0.00000000
         7         5         5     -0.00085387

 Doubles amplitudes (print threshold =  0.000E+00):

         I         J         SYM. A    SYM. B    A         B      T(IJ, AB)

         1         1         1         1         1         1     -0.00059735
         1         1         1         1         1         2      0.00008571
         1         1         1         1         1         3      0.00000000
         1         1         1         1         1         4     -0.00002971
         1         1         1         1         2         1      0.00008571
         1         1         1         1         2         2     -0.00050232
         1         1         1         1         2         3     -0.00000000
         1         1         1         1         2         4     -0.00031305
         1         1         1         1         3         1      0.00000000
         1         1         1         1         3         2     -0.00000000
         1         1         1         1         3         3      0.00000322
         1         1         1         1         3         4      0.00000000
         1         1         1         1         4         1     -0.00002971
         1         1         1         1         4         2     -0.00031305
         1         1         1         1         4         3      0.00000000
         1         1         1         1         4         4     -0.00019299
         1         1         2         2         1         1     -0.00060959
         1         1         2         2         1         2     -0.00002730
         1         1         2         2         2         1     -0.00002730
         1         1         2         2         2         2      0.00000804
         1         1         3         3         1         1     -0.00060959
         1         1         3         3         1         2     -0.00002730
         1         1         3         3         2         1     -0.00002730
         1         1         3         3         2         2      0.00000804
         1         1         4         4         1         1      0.00000322
         1         1         5         5         1         1     -0.00052036
         1         1         5         5         1         2      0.00032803
         1         1         5         5         1         3      0.00039546
         1         1         5         5         1         4     -0.00000000
         1         1         5         5         1         5     -0.00007783
         1         1         5         5         2         1      0.00032803
         1         1         5         5         2         2     -0.00059652
         1         1         5         5         2         3      0.00004765
         1         1         5         5         2         4      0.00000000
         1         1         5         5         2         5      0.00009903
         1         1         5         5         3         1      0.00039546
         1         1         5         5         3         2      0.00004765
         1         1         5         5         3         3     -0.00045581
         1         1         5         5         3         4      0.00000000
         1         1         5         5         3         5      0.00000761
         1         1         5         5         4         1     -0.00000000
         1         1         5         5         4         2      0.00000000
         1         1         5         5         4         3      0.00000000
         1         1         5         5         4         4     -0.00000026
         1         1         5         5         4         5     -0.00000000
         1         1         5         5         5         1     -0.00007783
         1         1         5         5         5         2      0.00009903
         1         1         5         5         5         3      0.00000761
         1         1         5         5         5         4     -0.00000000
         1         1         5         5         5         5     -0.00002760
         1         1         6         6         1         1     -0.00027808
         1         1         6         6         1         2      0.00047062
         1         1         6         6         1         3      0.00002824
         1         1         6         6         2         1      0.00047062
         1         1         6         6         2         2     -0.00059052
         1         1         6         6         2         3     -0.00004131
         1         1         6         6         3         1      0.00002824
         1         1         6         6         3         2     -0.00004131
         1         1         6         6         3         3     -0.00000532
         1         1         7         7         1         1     -0.00027808
         1         1         7         7         1         2      0.00047062
         1         1         7         7         1         3      0.00002824
         1         1         7         7         2         1      0.00047062
         1         1         7         7         2         2     -0.00059052
         1         1         7         7         2         3     -0.00004131
         1         1         7         7         3         1      0.00002824
         1         1         7         7         3         2     -0.00004131
         1         1         7         7         3         3     -0.00000532
         1         1         8         8         1         1     -0.00000026
         2         1         1         1         1         1     -0.00006769
         2         1         1         1         1         2     -0.00025597
         2         1         1         1         1         3     -0.00000000
         2         1         1         1         1         4     -0.00014426
         2         1         1         1         2         1     -0.00044848
         2         1         1         1         2         2     -0.00012071
         2         1         1         1         2         3      0.00000000
         2         1         1         1         2         4     -0.00008131
         2         1         1         1         3         1     -0.00000000
         2         1         1         1         3         2      0.00000000
         2         1         1         1         3         3     -0.00008594
         2         1         1         1         3         4      0.00000000
         2         1         1         1         4         1     -0.00011657
         2         1         1         1         4         2      0.00007395
         2         1         1         1         4         3      0.00000000
         2         1         1         1         4         4     -0.00006881
         2         1         2         2         1         1     -0.00055241
         2         1         2         2         1         2     -0.00001245
         2         1         2         2         2         1      0.00012281
         2         1         2         2         2         2     -0.00008218
         2         1         3         3         1         1     -0.00055241
         2         1         3         3         1         2     -0.00001245
         2         1         3         3         2         1      0.00012281
         2         1         3         3         2         2     -0.00008218
         2         1         4         4         1         1     -0.00008594
         2         1         5         5         1         1     -0.00059429
         2         1         5         5         1         2      0.00076010
         2         1         5         5         1         3      0.00006978
         2         1         5         5         1         4      0.00000000
         2         1         5         5         1         5     -0.00014126
         2         1         5         5         2         1      0.00047186
         2         1         5         5         2         2     -0.00048839
         2         1         5         5         2         3     -0.00014549
         2         1         5         5         2         4     -0.00000000
         2         1         5         5         2         5      0.00012015
         2         1         5         5         3         1      0.00011623
         2         1         5         5         3         2     -0.00029119
         2         1         5         5         3         3      0.00010173
         2         1         5         5         3         4     -0.00000000
         2         1         5         5         3         5      0.00008725
         2         1         5         5         4         1      0.00000000
         2         1         5         5         4         2     -0.00000000
         2         1         5         5         4         3     -0.00000000
         2         1         5         5         4         4     -0.00011220
         2         1         5         5         4         5     -0.00000000
         2         1         5         5         5         1     -0.00018210
         2         1         5         5         5         2      0.00021370
         2         1         5         5         5         3      0.00007050
         2         1         5         5         5         4     -0.00000000
         2         1         5         5         5         5     -0.00015713
         2         1         6         6         1         1     -0.00060927
         2         1         6         6         1         2      0.00077509
         2         1         6         6         1         3      0.00001871
         2         1         6         6         2         1      0.00049591
         2         1         6         6         2         2     -0.00056218
         2         1         6         6         2         3      0.00000653
         2         1         6         6         3         1     -0.00010347
         2         1         6         6         3         2      0.00011987
         2         1         6         6         3         3     -0.00010840
         2         1         7         7         1         1     -0.00060927
         2         1         7         7         1         2      0.00077509
         2         1         7         7         1         3      0.00001871
         2         1         7         7         2         1      0.00049591
         2         1         7         7         2         2     -0.00056218
         2         1         7         7         2         3      0.00000653
         2         1         7         7         3         1     -0.00010347
         2         1         7         7         3         2      0.00011987
         2         1         7         7         3         3     -0.00010840
         2         1         8         8         1         1     -0.00011220
         2         2         1         1         1         1     -0.00386982
         2         2         1         1         1         2      0.00241519
         2         2         1         1         1         3     -0.00000000
         2         2         1         1         1         4      0.00177904
         2         2         1         1         2         1      0.00241519
         2         2         1         1         2         2     -0.01107495
         2         2         1         1         2         3      0.00000000
         2         2         1         1         2         4      0.00091763
         2         2         1         1         3         1     -0.00000000
         2         2         1         1         3         2      0.00000000
         2         2         1         1         3         3     -0.00496371
         2         2         1         1         3         4      0.00000000
         2         2         1         1         4         1      0.00177904
         2         2         1         1         4         2      0.00091763
         2         2         1         1         4         3      0.00000000
         2         2         1         1         4         4     -0.00697564
         2         2         2         2         1         1     -0.00506768
         2         2         2         2         1         2      0.00006418
         2         2         2         2         2         1      0.00006418
         2         2         2         2         2         2     -0.00763477
         2         2         3         3         1         1     -0.00506768
         2         2         3         3         1         2      0.00006418
         2         2         3         3         2         1      0.00006418
         2         2         3         3         2         2     -0.00763477
         2         2         4         4         1         1     -0.00496371
         2         2         5         5         1         1     -0.02768828
         2         2         5         5         1         2      0.00716891
         2         2         5         5         1         3      0.00919000
         2         2         5         5         1         4      0.00000000
         2         2         5         5         1         5     -0.00284211
         2         2         5         5         2         1      0.00716891
         2         2         5         5         2         2     -0.00405216
         2         2         5         5         2         3     -0.00162260
         2         2         5         5         2         4     -0.00000000
         2         2         5         5         2         5      0.00193123
         2         2         5         5         3         1      0.00919000
         2         2         5         5         3         2     -0.00162260
         2         2         5         5         3         3     -0.00672842
         2         2         5         5         3         4     -0.00000000
         2         2         5         5         3         5      0.00203150
         2         2         5         5         4         1      0.00000000
         2         2         5         5         4         2     -0.00000000
         2         2         5         5         4         3     -0.00000000
         2         2         5         5         4         4     -0.00488721
         2         2         5         5         4         5     -0.00000000
         2         2         5         5         5         1     -0.00284211
         2         2         5         5         5         2      0.00193123
         2         2         5         5         5         3      0.00203150
         2         2         5         5         5         4     -0.00000000
         2         2         5         5         5         5     -0.00328639
         2         2         6         6         1         1     -0.01629306
         2         2         6         6         1         2      0.00723688
         2         2         6         6         1         3     -0.00322524
         2         2         6         6         2         1      0.00723688
         2         2         6         6         2         2     -0.00463788
         2         2         6         6         2         3      0.00201117
         2         2         6         6         3         1     -0.00322524
         2         2         6         6         3         2      0.00201117
         2         2         6         6         3         3     -0.00435811
         2         2         7         7         1         1     -0.01629306
         2         2         7         7         1         2      0.00723688
         2         2         7         7         1         3     -0.00322524
         2         2         7         7         2         1      0.00723688
         2         2         7         7         2         2     -0.00463788
         2         2         7         7         2         3      0.00201117
         2         2         7         7         3         1     -0.00322524
         2         2         7         7         3         2      0.00201117
         2         2         7         7         3         3     -0.00435811
         2         2         8         8         1         1     -0.00488721
         3         1         1         1         1         1      0.00009560
         3         1         1         1         1         2      0.00033587
         3         1         1         1         1         3     -0.00000000
         3         1         1         1         1         4      0.00028763
         3         1         1         1         2         1     -0.00044740
         3         1         1         1         2         2     -0.00025692
         3         1         1         1         2         3      0.00000000
         3         1         1         1         2         4     -0.00015303
         3         1         1         1         3         1     -0.00000000
         3         1         1         1         3         2      0.00000000
         3         1         1         1         3         3      0.00002566
         3         1         1         1         3         4      0.00000000
         3         1         1         1         4         1      0.00027894
         3         1         1         1         4         2      0.00036199
         3         1         1         1         4         3      0.00000000
         3         1         1         1         4         4      0.00029924
         3         1         2         2         1         1      0.00018019
         3         1         2         2         1         2      0.00008915
         3         1         2         2         2         1      0.00058973
         3         1         2         2         2         2      0.00004653
         3         1         3         3         1         1      0.00018019
         3         1         3         3         1         2      0.00008915
         3         1         3         3         2         1      0.00058973
         3         1         3         3         2         2      0.00004653
         3         1         4         4         1         1      0.00002566
         3         1         5         5         1         1     -0.00001599
         3         1         5         5         1         2     -0.00003660
         3         1         5         5         1         3      0.00000838
         3         1         5         5         1         4      0.00000000
         3         1         5         5         1         5     -0.00014943
         3         1         5         5         2         1     -0.00041021
         3         1         5         5         2         2      0.00026449
         3         1         5         5         2         3      0.00022271
         3         1         5         5         2         4      0.00000000
         3         1         5         5         2         5      0.00006650
         3         1         5         5         3         1      0.00055798
         3         1         5         5         3         2     -0.00054882
         3         1         5         5         3         3     -0.00012174
         3         1         5         5         3         4      0.00000000
         3         1         5         5         3         5      0.00011545
         3         1         5         5         4         1     -0.00000000
         3         1         5         5         4         2      0.00000000
         3         1         5         5         4         3      0.00000000
         3         1         5         5         4         4      0.00003804
         3         1         5         5         4         5      0.00000000
         3         1         5         5         5         1     -0.00049615
         3         1         5         5         5         2      0.00052762
         3         1         5         5         5         3      0.00007488
         3         1         5         5         5         4      0.00000000
         3         1         5         5         5         5     -0.00006800
         3         1         6         6         1         1      0.00020207
         3         1         6         6         1         2     -0.00024217
         3         1         6         6         1         3     -0.00015156
         3         1         6         6         2         1     -0.00005943
         3         1         6         6         2         2      0.00008476
         3         1         6         6         2         3      0.00009353
         3         1         6         6         3         1     -0.00053376
         3         1         6         6         3         2      0.00052631
         3         1         6         6         3         3      0.00006962
         3         1         7         7         1         1      0.00020207
         3         1         7         7         1         2     -0.00024217
         3         1         7         7         1         3     -0.00015156
         3         1         7         7         2         1     -0.00005943
         3         1         7         7         2         2      0.00008476
         3         1         7         7         2         3      0.00009353
         3         1         7         7         3         1     -0.00053376
         3         1         7         7         3         2      0.00052631
         3         1         7         7         3         3      0.00006962
         3         1         8         8         1         1      0.00003804
         3         2         1         1         1         1      0.00859465
         3         2         1         1         1         2     -0.00593164
         3         2         1         1         1         3     -0.00000000
         3         2         1         1         1         4      0.00034234
         3         2         1         1         2         1      0.00067218
         3         2         1         1         2         2     -0.00810780
         3         2         1         1         2         3      0.00000000
         3         2         1         1         2         4      0.00095478
         3         2         1         1         3         1     -0.00000000
         3         2         1         1         3         2      0.00000000
         3         2         1         1         3         3      0.00102612
         3         2         1         1         3         4      0.00000000
         3         2         1         1         4         1      0.00289179
         3         2         1         1         4         2      0.00052997
         3         2         1         1         4         3      0.00000000
         3         2         1         1         4         4     -0.00226320
         3         2         2         2         1         1      0.00167070
         3         2         2         2         1         2      0.00156901
         3         2         2         2         2         1      0.00287444
         3         2         2         2         2         2     -0.00217759
         3         2         3         3         1         1      0.00167070
         3         2         3         3         1         2      0.00156901
         3         2         3         3         2         1      0.00287444
         3         2         3         3         2         2     -0.00217759
         3         2         4         4         1         1      0.00102612
         3         2         5         5         1         1     -0.02145193
         3         2         5         5         1         2      0.00406522
         3         2         5         5         1         3      0.01155539
         3         2         5         5         1         4     -0.00000000
         3         2         5         5         1         5     -0.00592898
         3         2         5         5         2         1      0.01116018
         3         2         5         5         2         2      0.00339448
         3         2         5         5         2         3     -0.00876916
         3         2         5         5         2         4      0.00000000
         3         2         5         5         2         5      0.00164555
         3         2         5         5         3         1      0.01074389
         3         2         5         5         3         2     -0.00494827
         3         2         5         5         3         3     -0.00154261
         3         2         5         5         3         4      0.00000000
         3         2         5         5         3         5      0.00110804
         3         2         5         5         4         1      0.00000000
         3         2         5         5         4         2      0.00000000
         3         2         5         5         4         3      0.00000000
         3         2         5         5         4         4      0.00169477
         3         2         5         5         4         5      0.00000000
         3         2         5         5         5         1     -0.01063305
         3         2         5         5         5         2      0.00332244
         3         2         5         5         5         3      0.00192105
         3         2         5         5         5         4      0.00000000
         3         2         5         5         5         5      0.00016745
         3         2         6         6         1         1      0.00876565
         3         2         6         6         1         2     -0.00068139
         3         2         6         6         1         3     -0.00534543
         3         2         6         6         2         1      0.00124232
         3         2         6         6         2         2      0.00045601
         3         2         6         6         2         3      0.00163081
         3         2         6         6         3         1     -0.01146137
         3         2         6         6         3         2      0.00320080
         3         2         6         6         3         3      0.00063018
         3         2         7         7         1         1      0.00876565
         3         2         7         7         1         2     -0.00068139
         3         2         7         7         1         3     -0.00534543
         3         2         7         7         2         1      0.00124232
         3         2         7         7         2         2      0.00045601
         3         2         7         7         2         3      0.00163081
         3         2         7         7         3         1     -0.01146137
         3         2         7         7         3         2      0.00320080
         3         2         7         7         3         3      0.00063018
         3         2         8         8         1         1      0.00169477
         3         3         1         1         1         1     -0.01917646
         3         3         1         1         1         2     -0.00392198
         3         3         1         1         1         3      0.00000000
         3         3         1         1         1         4     -0.00309393
         3         3         1         1         2         1     -0.00392198
         3         3         1         1         2         2     -0.00813032
         3         3         1         1         2         3     -0.00000000
         3         3         1         1         2         4      0.00674475
         3         3         1         1         3         1      0.00000000
         3         3         1         1         3         2     -0.00000000
         3         3         1         1         3         3     -0.00111677
         3         3         1         1         3         4     -0.00000000
         3         3         1         1         4         1     -0.00309393
         3         3         1         1         4         2      0.00674475
         3         3         1         1         4         3     -0.00000000
         3         3         1         1         4         4     -0.01172964
         3         3         2         2         1         1     -0.00187134
         3         3         2         2         1         2     -0.00260501
         3         3         2         2         2         1     -0.00260501
         3         3         2         2         2         2     -0.01283771
         3         3         3         3         1         1     -0.00187134
         3         3         3         3         1         2     -0.00260501
         3         3         3         3         2         1     -0.00260501
         3         3         3         3         2         2     -0.01283771
         3         3         4         4         1         1     -0.00111677
         3         3         5         5         1         1     -0.06872326
         3         3         5         5         1         2      0.02611603
         3         3         5         5         1         3      0.00012199
         3         3         5         5         1         4      0.00000000
         3         3         5         5         1         5      0.00226635
         3         3         5         5         2         1      0.02611603
         3         3         5         5         2         2     -0.02565519
         3         3         5         5         2         3      0.00211910
         3         3         5         5         2         4     -0.00000000
         3         3         5         5         2         5      0.00013317
         3         3         5         5         3         1      0.00012199
         3         3         5         5         3         2      0.00211910
         3         3         5         5         3         3     -0.00380084
         3         3         5         5         3         4     -0.00000000
         3         3         5         5         3         5      0.00393548
         3         3         5         5         4         1      0.00000000
         3         3         5         5         4         2     -0.00000000
         3         3         5         5         4         3     -0.00000000
         3         3         5         5         4         4     -0.00091012
         3         3         5         5         4         5     -0.00000000
         3         3         5         5         5         1      0.00226635
         3         3         5         5         5         2      0.00013317
         3         3         5         5         5         3      0.00393548
         3         3         5         5         5         4     -0.00000000
         3         3         5         5         5         5     -0.00578588
         3         3         6         6         1         1     -0.02556947
         3         3         6         6         1         2      0.00294551
         3         3         6         6         1         3      0.00857615
         3         3         6         6         2         1      0.00294551
         3         3         6         6         2         2     -0.00198049
         3         3         6         6         2         3     -0.00055632
         3         3         6         6         3         1      0.00857615
         3         3         6         6         3         2     -0.00055632
         3         3         6         6         3         3     -0.00623901
         3         3         7         7         1         1     -0.02556947
         3         3         7         7         1         2      0.00294551
         3         3         7         7         1         3      0.00857615
         3         3         7         7         2         1      0.00294551
         3         3         7         7         2         2     -0.00198049
         3         3         7         7         2         3     -0.00055632
         3         3         7         7         3         1      0.00857615
         3         3         7         7         3         2     -0.00055632
         3         3         7         7         3         3     -0.00623901
         3         3         8         8         1         1     -0.00091012
         4         4         1         1         1         1     -0.00321119
         4         4         1         1         1         2      0.00229983
         4         4         1         1         1         3     -0.00144295
         4         4         1         1         1         4      0.00151723
         4         4         1         1         2         1      0.00229983
         4         4         1         1         2         2     -0.00736959
         4         4         1         1         2         3     -0.00341578
         4         4         1         1         2         4     -0.00014379
         4         4         1         1         3         1     -0.00144295
         4         4         1         1         3         2     -0.00341578
         4         4         1         1         3         3     -0.00875818
         4         4         1         1         3         4      0.00355823
         4         4         1         1         4         1      0.00151723
         4         4         1         1         4         2     -0.00014379
         4         4         1         1         4         3      0.00355823
         4         4         1         1         4         4     -0.00298301
         4         4         2         2         1         1     -0.01822712
         4         4         2         2         1         2      0.00083494
         4         4         2         2         2         1      0.00083494
         4         4         2         2         2         2     -0.01097563
         4         4         3         3         1         1     -0.00104191
         4         4         3         3         1         2     -0.00012688
         4         4         3         3         2         1     -0.00012688
         4         4         3         3         2         2     -0.00077374
         4         4         4         4         1         1     -0.00875818
         4         4         5         5         1         1     -0.01953551
         4         4         5         5         1         2      0.00257462
         4         4         5         5         1         3      0.00135452
         4         4         5         5         1         4     -0.00508592
         4         4         5         5         1         5      0.00083328
         4         4         5         5         2         1      0.00257462
         4         4         5         5         2         2     -0.00167970
         4         4         5         5         2         3      0.00081103
         4         4         5         5         2         4     -0.00042997
         4         4         5         5         2         5      0.00069551
         4         4         5         5         3         1      0.00135452
         4         4         5         5         3         2      0.00081103
         4         4         5         5         3         3     -0.00338957
         4         4         5         5         3         4     -0.00051932
         4         4         5         5         3         5     -0.00033854
         4         4         5         5         4         1     -0.00508592
         4         4         5         5         4         2     -0.00042997
         4         4         5         5         4         3     -0.00051932
         4         4         5         5         4         4     -0.00602394
         4         4         5         5         4         5      0.00206104
         4         4         5         5         5         1      0.00083328
         4         4         5         5         5         2      0.00069551
         4         4         5         5         5         3     -0.00033854
         4         4         5         5         5         4      0.00206104
         4         4         5         5         5         5     -0.00124054
         4         4         6         6         1         1     -0.17139448
         4         4         6         6         1         2      0.03032819
         4         4         6         6         1         3     -0.00292817
         4         4         6         6         2         1      0.03032819
         4         4         6         6         2         2     -0.01455226
         4         4         6         6         2         3      0.00128692
         4         4         6         6         3         1     -0.00292817
         4         4         6         6         3         2      0.00128692
         4         4         6         6         3         3     -0.00490574
         4         4         7         7         1         1     -0.02467466
         4         4         7         7         1         2      0.00338341
         4         4         7         7         1         3     -0.00087919
         4         4         7         7         2         1      0.00338341
         4         4         7         7         2         2     -0.00099641
         4         4         7         7         2         3      0.00009393
         4         4         7         7         3         1     -0.00087919
         4         4         7         7         3         2      0.00009393
         4         4         7         7         3         3     -0.00034941
         4         4         8         8         1         1     -0.00602394
         5         5         1         1         1         1     -0.00321119
         5         5         1         1         1         2      0.00229983
         5         5         1         1         1         3      0.00144295
         5         5         1         1         1         4      0.00151723
         5         5         1         1         2         1      0.00229983
         5         5         1         1         2         2     -0.00736959
         5         5         1         1         2         3      0.00341578
         5         5         1         1         2         4     -0.00014379
         5         5         1         1         3         1      0.00144295
         5         5         1         1         3         2      0.00341578
         5         5         1         1         3         3     -0.00875818
         5         5         1         1         3         4     -0.00355823
         5         5         1         1         4         1      0.00151723
         5         5         1         1         4         2     -0.00014379
         5         5         1         1         4         3     -0.00355823
         5         5         1         1         4         4     -0.00298301
         5         5         2         2         1         1     -0.00104191
         5         5         2         2         1         2     -0.00012688
         5         5         2         2         2         1     -0.00012688
         5         5         2         2         2         2     -0.00077374
         5         5         3         3         1         1     -0.01822712
         5         5         3         3         1         2      0.00083494
         5         5         3         3         2         1      0.00083494
         5         5         3         3         2         2     -0.01097563
         5         5         4         4         1         1     -0.00875818
         5         5         5         5         1         1     -0.01953551
         5         5         5         5         1         2      0.00257462
         5         5         5         5         1         3      0.00135452
         5         5         5         5         1         4      0.00508592
         5         5         5         5         1         5      0.00083328
         5         5         5         5         2         1      0.00257462
         5         5         5         5         2         2     -0.00167970
         5         5         5         5         2         3      0.00081103
         5         5         5         5         2         4      0.00042997
         5         5         5         5         2         5      0.00069551
         5         5         5         5         3         1      0.00135452
         5         5         5         5         3         2      0.00081103
         5         5         5         5         3         3     -0.00338957
         5         5         5         5         3         4      0.00051932
         5         5         5         5         3         5     -0.00033854
         5         5         5         5         4         1      0.00508592
         5         5         5         5         4         2      0.00042997
         5         5         5         5         4         3      0.00051932
         5         5         5         5         4         4     -0.00602394
         5         5         5         5         4         5     -0.00206104
         5         5         5         5         5         1      0.00083328
         5         5         5         5         5         2      0.00069551
         5         5         5         5         5         3     -0.00033854
         5         5         5         5         5         4     -0.00206104
         5         5         5         5         5         5     -0.00124054
         5         5         6         6         1         1     -0.02467466
         5         5         6         6         1         2      0.00338341
         5         5         6         6         1         3     -0.00087919
         5         5         6         6         2         1      0.00338341
         5         5         6         6         2         2     -0.00099641
         5         5         6         6         2         3      0.00009393
         5         5         6         6         3         1     -0.00087919
         5         5         6         6         3         2      0.00009393
         5         5         6         6         3         3     -0.00034941
         5         5         7         7         1         1     -0.17139448
         5         5         7         7         1         2      0.03032819
         5         5         7         7         1         3     -0.00292817
         5         5         7         7         2         1      0.03032819
         5         5         7         7         2         2     -0.01455226
         5         5         7         7         2         3      0.00128692
         5         5         7         7         3         1     -0.00292817
         5         5         7         7         3         2      0.00128692
         5         5         7         7         3         3     -0.00490574
         5         5         8         8         1         1     -0.00602394
         6         6         1         1         1         1     -0.00059273
         6         6         1         1         1         2      0.00009055
         6         6         1         1         1         3      0.00000000
         6         6         1         1         1         4     -0.00002724
         6         6         1         1         2         1      0.00009055
         6         6         1         1         2         2     -0.00049868
         6         6         1         1         2         3     -0.00000000
         6         6         1         1         2         4     -0.00031100
         6         6         1         1         3         1      0.00000000
         6         6         1         1         3         2     -0.00000000
         6         6         1         1         3         3      0.00000257
         6         6         1         1         3         4      0.00000000
         6         6         1         1         4         1     -0.00002724
         6         6         1         1         4         2     -0.00031100
         6         6         1         1         4         3      0.00000000
         6         6         1         1         4         4     -0.00019285
         6         6         2         2         1         1     -0.00060368
         6         6         2         2         1         2     -0.00002794
         6         6         2         2         2         1     -0.00002794
         6         6         2         2         2         2      0.00000726
         6         6         3         3         1         1     -0.00060368
         6         6         3         3         1         2     -0.00002794
         6         6         3         3         2         1     -0.00002794
         6         6         3         3         2         2      0.00000726
         6         6         4         4         1         1      0.00000257
         6         6         5         5         1         1     -0.00052987
         6         6         5         5         1         2      0.00033831
         6         6         5         5         1         3      0.00039714
         6         6         5         5         1         4     -0.00000000
         6         6         5         5         1         5     -0.00008064
         6         6         5         5         2         1      0.00033831
         6         6         5         5         2         2     -0.00060735
         6         6         5         5         2         3      0.00004533
         6         6         5         5         2         4      0.00000000
         6         6         5         5         2         5      0.00010191
         6         6         5         5         3         1      0.00039714
         6         6         5         5         3         2      0.00004533
         6         6         5         5         3         3     -0.00045598
         6         6         5         5         3         4      0.00000000
         6         6         5         5         3         5      0.00000812
         6         6         5         5         4         1     -0.00000000
         6         6         5         5         4         2      0.00000000
         6         6         5         5         4         3      0.00000000
         6         6         5         5         4         4      0.00000050
         6         6         5         5         4         5     -0.00000000
         6         6         5         5         5         1     -0.00008064
         6         6         5         5         5         2      0.00010191
         6         6         5         5         5         3      0.00000812
         6         6         5         5         5         4     -0.00000000
         6         6         5         5         5         5     -0.00002782
         6         6         6         6         1         1     -0.00028366
         6         6         6         6         1         2      0.00047565
         6         6         6         6         1         3      0.00002806
         6         6         6         6         2         1      0.00047565
         6         6         6         6         2         2     -0.00059594
         6         6         6         6         2         3     -0.00004115
         6         6         6         6         3         1      0.00002806
         6         6         6         6         3         2     -0.00004115
         6         6         6         6         3         3     -0.00000460
         6         6         7         7         1         1     -0.00028366
         6         6         7         7         1         2      0.00047565
         6         6         7         7         1         3      0.00002806
         6         6         7         7         2         1      0.00047565
         6         6         7         7         2         2     -0.00059594
         6         6         7         7         2         3     -0.00004115
         6         6         7         7         3         1      0.00002806
         6         6         7         7         3         2     -0.00004115
         6         6         7         7         3         3     -0.00000460
         6         6         8         8         1         1      0.00000050
         7         6         1         1         1         1     -0.00015864
         7         6         1         1         1         2     -0.00041004
         7         6         1         1         1         3     -0.00000000
         7         6         1         1         1         4     -0.00027419
         7         6         1         1         2         1     -0.00018034
         7         6         1         1         2         2      0.00002280
         7         6         1         1         2         3      0.00000000
         7         6         1         1         2         4      0.00000869
         7         6         1         1         3         1      0.00000000
         7         6         1         1         3         2     -0.00000000
         7         6         1         1         3         3     -0.00011838
         7         6         1         1         3         4     -0.00000000
         7         6         1         1         4         1     -0.00025738
         7         6         1         1         4         2     -0.00012273
         7         6         1         1         4         3      0.00000000
         7         6         1         1         4         4     -0.00023950
         7         6         2         2         1         1     -0.00063530
         7         6         2         2         1         2     -0.00005343
         7         6         2         2         2         1     -0.00021006
         7         6         2         2         2         2     -0.00011787
         7         6         3         3         1         1     -0.00063530
         7         6         3         3         1         2     -0.00005343
         7         6         3         3         2         1     -0.00021006
         7         6         3         3         2         2     -0.00011787
         7         6         4         4         1         1     -0.00011838
         7         6         5         5         1         1     -0.00061169
         7         6         5         5         1         2      0.00080439
         7         6         5         5         1         3      0.00006908
         7         6         5         5         1         4     -0.00000000
         7         6         5         5         1         5     -0.00008290
         7         6         5         5         2         1      0.00063478
         7         6         5         5         2         2     -0.00056355
         7         6         5         5         2         3     -0.00024521
         7         6         5         5         2         4      0.00000000
         7         6         5         5         2         5      0.00007584
         7         6         5         5         3         1     -0.00013431
         7         6         5         5         3         2     -0.00006305
         7         6         5         5         3         3      0.00016645
         7         6         5         5         3         4      0.00000000
         7         6         5         5         3         5      0.00002980
         7         6         5         5         4         1     -0.00000000
         7         6         5         5         4         2      0.00000000
         7         6         5         5         4         3      0.00000000
         7         6         5         5         4         4     -0.00009833
         7         6         5         5         4         5     -0.00000000
         7         6         5         5         5         1      0.00004691
         7         6         5         5         5         2     -0.00004461
         7         6         5         5         5         3      0.00002298
         7         6         5         5         5         4     -0.00000000
         7         6         5         5         5         5     -0.00010032
         7         6         6         6         1         1     -0.00074709
         7         6         6         6         1         2      0.00090632
         7         6         6         6         1         3      0.00009232
         7         6         6         6         2         1      0.00050773
         7         6         6         6         2         2     -0.00058009
         7         6         6         6         2         3     -0.00004533
         7         6         6         6         3         1      0.00013835
         7         6         6         6         3         2     -0.00012926
         7         6         6         6         3         3     -0.00011313
         7         6         7         7         1         1     -0.00074709
         7         6         7         7         1         2      0.00090632
         7         6         7         7         1         3      0.00009232
         7         6         7         7         2         1      0.00050773
         7         6         7         7         2         2     -0.00058009
         7         6         7         7         2         3     -0.00004533
         7         6         7         7         3         1      0.00013835
         7         6         7         7         3         2     -0.00012926
         7         6         7         7         3         3     -0.00011313
         7         6         8         8         1         1     -0.00009833
         7         7         1         1         1         1     -0.01265476
         7         7         1         1         1         2      0.00299627
         7         7         1         1         1         3      0.00000000
         7         7         1         1         1         4      0.00002816
         7         7         1         1         2         1      0.00299627
         7         7         1         1         2         2     -0.00311618
         7         7         1         1         2         3     -0.00000000
         7         7         1         1         2         4      0.00130107
         7         7         1         1         3         1      0.00000000
         7         7         1         1         3         2     -0.00000000
         7         7         1         1         3         3     -0.00614539
         7         7         1         1         3         4     -0.00000000
         7         7         1         1         4         1      0.00002816
         7         7         1         1         4         2      0.00130107
         7         7         1         1         4         3     -0.00000000
         7         7         1         1         4         4     -0.00681520
         7         7         2         2         1         1     -0.00580860
         7         7         2         2         1         2     -0.00232814
         7         7         2         2         2         1     -0.00232814
         7         7         2         2         2         2     -0.00725177
         7         7         3         3         1         1     -0.00580860
         7         7         3         3         1         2     -0.00232814
         7         7         3         3         2         1     -0.00232814
         7         7         3         3         2         2     -0.00725177
         7         7         4         4         1         1     -0.00614539
         7         7         5         5         1         1     -0.02401656
         7         7         5         5         1         2      0.00541801
         7         7         5         5         1         3      0.00048532
         7         7         5         5         1         4     -0.00000000
         7         7         5         5         1         5      0.00456836
         7         7         5         5         2         1      0.00541801
         7         7         5         5         2         2     -0.01209333
         7         7         5         5         2         3      0.00545856
         7         7         5         5         2         4      0.00000000
         7         7         5         5         2         5     -0.00024884
         7         7         5         5         3         1      0.00048532
         7         7         5         5         3         2      0.00545856
         7         7         5         5         3         3     -0.00610560
         7         7         5         5         3         4      0.00000000
         7         7         5         5         3         5      0.00076065
         7         7         5         5         4         1     -0.00000000
         7         7         5         5         4         2      0.00000000
         7         7         5         5         4         3      0.00000000
         7         7         5         5         4         4     -0.00525091
         7         7         5         5         4         5     -0.00000000
         7         7         5         5         5         1      0.00456836
         7         7         5         5         5         2     -0.00024884
         7         7         5         5         5         3      0.00076065
         7         7         5         5         5         4     -0.00000000
         7         7         5         5         5         5     -0.00377107
         7         7         6         6         1         1     -0.04080373
         7         7         6         6         1         2      0.00925108
         7         7         6         6         1         3      0.00565090
         7         7         6         6         2         1      0.00925108
         7         7         6         6         2         2     -0.00531411
         7         7         6         6         2         3     -0.00074646
         7         7         6         6         3         1      0.00565090
         7         7         6         6         3         2     -0.00074646
         7         7         6         6         3         3     -0.00498803
         7         7         7         7         1         1     -0.04080373
         7         7         7         7         1         2      0.00925108
         7         7         7         7         1         3      0.00565090
         7         7         7         7         2         1      0.00925108
         7         7         7         7         2         2     -0.00531411
         7         7         7         7         2         3     -0.00074646
         7         7         7         7         3         1      0.00565090
         7         7         7         7         3         2     -0.00074646
         7         7         7         7         3         3     -0.00498803
         7         7         8         8         1         1     -0.00525091
         4         1         1         2         1         1      0.00037844
         4         1         1         2         1         2      0.00006740
         4         1         1         2         2         1     -0.00018612
         4         1         1         2         2         2      0.00001791
         4         1         1         2         3         1      0.00056291
         4         1         1         2         3         2      0.00002115
         4         1         1         2         4         1     -0.00042762
         4         1         1         2         4         2      0.00000383
         4         1         2         1         1         1     -0.00020043
         4         1         2         1         1         2      0.00015123
         4         1         2         1         1         3      0.00007608
         4         1         2         1         1         4      0.00001763
         4         1         2         1         2         1      0.00037834
         4         1         2         1         2         2      0.00034523
         4         1         2         1         2         3      0.00000539
         4         1         2         1         2         4      0.00023766
         4         1         3         4         1         1      0.00007608
         4         1         3         4         2         1      0.00000539
         4         1         4         3         1         1      0.00056291
         4         1         4         3         1         2      0.00002115
         4         1         5         6         1         1     -0.00046179
         4         1         5         6         1         2      0.00040051
[...]
         7         3         6         2         3         2      0.00347821
         7         3         7         3         1         1     -0.00592445
         7         3         7         3         1         2     -0.02128590
         7         3         7         3         2         1      0.00232511
         7         3         7         3         2         2      0.00389954
         7         3         7         3         3         1      0.00224347
         7         3         7         3         3         2      0.00347821
         7         3         8         4         1         1      0.00206159
         6         4         1         6         1         1     -0.00013720
         6         4         1         6         1         2     -0.00016945
         6         4         1         6         1         3      0.00030369
         6         4         1         6         2         1     -0.00006287
         6         4         1         6         2         2      0.00013231
         6         4         1         6         2         3      0.00028369
         6         4         1         6         3         1     -0.00013622
         6         4         1         6         3         2      0.00007991
         6         4         1         6         3         3     -0.00000135
         6         4         1         6         4         1      0.00005808
         6         4         1         6         4         2     -0.00000216
         6         4         1         6         4         3      0.00022588
         6         4         2         5         1         1      0.00037561
         6         4         2         5         1         2      0.00014976
         6         4         2         5         1         3     -0.00032580
         6         4         2         5         1         4      0.00050836
         6         4         2         5         1         5     -0.00030364
         6         4         2         5         2         1     -0.00009216
         6         4         2         5         2         2      0.00008954
         6         4         2         5         2         3      0.00000124
         6         4         2         5         2         4      0.00002993
         6         4         2         5         2         5     -0.00003818
         6         4         3         8         1         1      0.00050836
         6         4         3         8         2         1      0.00002993
         6         4         4         7         1         1     -0.00013622
         6         4         4         7         1         2      0.00007991
         6         4         4         7         1         3     -0.00000135
         6         4         5         2         1         1     -0.00010155
         6         4         5         2         1         2     -0.00059405
         6         4         5         2         2         1     -0.00011243
         6         4         5         2         2         2      0.00057521
         6         4         5         2         3         1      0.00020204
         6         4         5         2         3         2      0.00013821
         6         4         5         2         4         1      0.00007816
         6         4         5         2         4         2      0.00000104
         6         4         5         2         5         1     -0.00002854
         6         4         5         2         5         2     -0.00011766
         6         4         6         1         1         1     -0.00043007
         6         4         6         1         1         2      0.00021904
         6         4         6         1         1         3     -0.00057925
         6         4         6         1         1         4      0.00047684
         6         4         6         1         2         1      0.00038128
         6         4         6         1         2         2     -0.00019576
         6         4         6         1         2         3      0.00056228
         6         4         6         1         2         4     -0.00043213
         6         4         6         1         3         1      0.00006979
         6         4         6         1         3         2      0.00002834
         6         4         6         1         3         3      0.00002322
         6         4         6         1         3         4      0.00000676
         6         4         7         4         1         1     -0.00057925
         6         4         7         4         2         1      0.00056228
         6         4         7         4         3         1      0.00002322
         6         4         8         3         1         1      0.00007816
         6         4         8         3         1         2      0.00000104
         7         4         1         6         1         1     -0.01426525
         7         4         1         6         1         2      0.01155101
         7         4         1         6         1         3      0.00200727
         7         4         1         6         2         1      0.00611226
         7         4         1         6         2         2     -0.00553470
         7         4         1         6         2         3     -0.00075011
         7         4         1         6         3         1     -0.00960485
         7         4         1         6         3         2      0.00188205
         7         4         1         6         3         3      0.00003492
         7         4         1         6         4         1      0.00860263
         7         4         1         6         4         2     -0.00341897
         7         4         1         6         4         3      0.00263367
         7         4         2         5         1         1      0.00470247
         7         4         2         5         1         2      0.00281145
         7         4         2         5         1         3     -0.00378156
         7         4         2         5         1         4      0.00363602
         7         4         2         5         1         5     -0.00212029
         7         4         2         5         2         1     -0.00525577
         7         4         2         5         2         2      0.00257150
         7         4         2         5         2         3      0.00067739
         7         4         2         5         2         4      0.00269327
         7         4         2         5         2         5     -0.00126691
         7         4         3         8         1         1      0.00363602
         7         4         3         8         2         1      0.00269327
         7         4         4         7         1         1     -0.00960485
         7         4         4         7         1         2      0.00188205
         7         4         4         7         1         3      0.00003492
         7         4         5         2         1         1      0.00540021
         7         4         5         2         1         2     -0.01618844
         7         4         5         2         2         1      0.00975809
         7         4         5         2         2         2      0.00487959
         7         4         5         2         3         1     -0.01042609
         7         4         5         2         3         2      0.00042884
         7         4         5         2         4         1      0.00147015
         7         4         5         2         4         2      0.00048007
         7         4         5         2         5         1     -0.00200810
         7         4         5         2         5         2      0.00017633
         7         4         6         1         1         1     -0.00868151
         7         4         6         1         1         2     -0.00350449
         7         4         6         1         1         3     -0.01953941
         7         4         6         1         1         4      0.01182620
         7         4         6         1         2         1      0.00579886
         7         4         6         1         2         2     -0.00294839
         7         4         6         1         2         3      0.00358316
         7         4         6         1         2         4     -0.00295703
         7         4         6         1         3         1      0.00126393
         7         4         6         1         3         2     -0.00073742
         7         4         6         1         3         3      0.00066253
         7         4         6         1         3         4     -0.00007323
         7         4         7         4         1         1     -0.01953941
         7         4         7         4         2         1      0.00358316
         7         4         7         4         3         1      0.00066253
         7         4         8         3         1         1      0.00147015
         7         4         8         3         1         2      0.00048007
         6         5         1         7         1         1     -0.00013720
         6         5         1         7         1         2     -0.00016945
         6         5         1         7         1         3      0.00030369
         6         5         1         7         2         1     -0.00006287
         6         5         1         7         2         2      0.00013231
         6         5         1         7         2         3      0.00028369
         6         5         1         7         3         1      0.00013622
         6         5         1         7         3         2     -0.00007991
         6         5         1         7         3         3      0.00000135
         6         5         1         7         4         1      0.00005808
         6         5         1         7         4         2     -0.00000216
         6         5         1         7         4         3      0.00022588
         6         5         2         8         1         1      0.00050836
         6         5         2         8         2         1      0.00002993
         6         5         3         5         1         1      0.00037561
         6         5         3         5         1         2      0.00014976
         6         5         3         5         1         3     -0.00032580
         6         5         3         5         1         4     -0.00050836
         6         5         3         5         1         5     -0.00030364
         6         5         3         5         2         1     -0.00009216
         6         5         3         5         2         2      0.00008954
         6         5         3         5         2         3      0.00000124
         6         5         3         5         2         4     -0.00002993
         6         5         3         5         2         5     -0.00003818
         6         5         4         6         1         1     -0.00013622
         6         5         4         6         1         2      0.00007991
         6         5         4         6         1         3     -0.00000135
         6         5         5         3         1         1     -0.00010155
         6         5         5         3         1         2     -0.00059405
         6         5         5         3         2         1     -0.00011243
         6         5         5         3         2         2      0.00057521
         6         5         5         3         3         1      0.00020204
         6         5         5         3         3         2      0.00013821
         6         5         5         3         4         1     -0.00007816
         6         5         5         3         4         2     -0.00000104
         6         5         5         3         5         1     -0.00002854
         6         5         5         3         5         2     -0.00011766
         6         5         6         4         1         1     -0.00057925
         6         5         6         4         2         1      0.00056228
         6         5         6         4         3         1      0.00002322
         6         5         7         1         1         1     -0.00043007
         6         5         7         1         1         2      0.00021904
         6         5         7         1         1         3      0.00057925
         6         5         7         1         1         4      0.00047684
         6         5         7         1         2         1      0.00038128
         6         5         7         1         2         2     -0.00019576
         6         5         7         1         2         3     -0.00056228
         6         5         7         1         2         4     -0.00043213
         6         5         7         1         3         1      0.00006979
         6         5         7         1         3         2      0.00002834
         6         5         7         1         3         3     -0.00002322
         6         5         7         1         3         4      0.00000676
         6         5         8         2         1         1      0.00007816
         6         5         8         2         1         2      0.00000104
         7         5         1         7         1         1     -0.01426525
         7         5         1         7         1         2      0.01155101
         7         5         1         7         1         3      0.00200727
         7         5         1         7         2         1      0.00611226
         7         5         1         7         2         2     -0.00553470
         7         5         1         7         2         3     -0.00075011
         7         5         1         7         3         1      0.00960485
         7         5         1         7         3         2     -0.00188205
         7         5         1         7         3         3     -0.00003492
         7         5         1         7         4         1      0.00860263
         7         5         1         7         4         2     -0.00341897
         7         5         1         7         4         3      0.00263367
         7         5         2         8         1         1      0.00363602
         7         5         2         8         2         1      0.00269327
         7         5         3         5         1         1      0.00470247
         7         5         3         5         1         2      0.00281145
         7         5         3         5         1         3     -0.00378156
         7         5         3         5         1         4     -0.00363602
         7         5         3         5         1         5     -0.00212029
         7         5         3         5         2         1     -0.00525577
         7         5         3         5         2         2      0.00257150
         7         5         3         5         2         3      0.00067739
         7         5         3         5         2         4     -0.00269327
         7         5         3         5         2         5     -0.00126691
         7         5         4         6         1         1     -0.00960485
         7         5         4         6         1         2      0.00188205
         7         5         4         6         1         3      0.00003492
         7         5         5         3         1         1      0.00540021
         7         5         5         3         1         2     -0.01618844
         7         5         5         3         2         1      0.00975809
         7         5         5         3         2         2      0.00487959
         7         5         5         3         3         1     -0.01042609
         7         5         5         3         3         2      0.00042884
         7         5         5         3         4         1     -0.00147015
         7         5         5         3         4         2     -0.00048007
         7         5         5         3         5         1     -0.00200810
         7         5         5         3         5         2      0.00017633
         7         5         6         4         1         1     -0.01953941
         7         5         6         4         2         1      0.00358316
         7         5         6         4         3         1      0.00066253
         7         5         7         1         1         1     -0.00868151
         7         5         7         1         1         2     -0.00350449
         7         5         7         1         1         3      0.01953941
         7         5         7         1         1         4      0.01182620
         7         5         7         1         2         1      0.00579886
         7         5         7         1         2         2     -0.00294839
         7         5         7         1         2         3     -0.00358316
         7         5         7         1         2         4     -0.00295703
         7         5         7         1         3         1      0.00126393
         7         5         7         1         3         2     -0.00073742
         7         5         7         1         3         3     -0.00066253
         7         5         7         1         3         4     -0.00007323
         7         5         8         2         1         1      0.00147015
         7         5         8         2         1         2      0.00048007


 RESULTS
 =======

  Reference energy                   -108.606225806201

  Correlated core orbitals:             1.1       1.5
  Orbital energies:                   -15.7968  -15.7961

  CISD core-core energy                -0.000578927497
  CISD core-valence energy             -0.002370532019
  CISD valence correlation energy      -0.379587164295

  CISD singlet pair energy             -0.283362903975
  CISD triplet pair energy             -0.096958126325
  CISD correlation energy              -0.382536623811

 !CISD total energy                  -108.988762430012

 Timing summary (sec):

 STEP                 CPU(USER)    SYS     CPU(TOT)    WALL
 CCSD iterations         0.15      0.03      0.18      0.17

 Program statistics:

 Available memory in ccsd:                39999004
 Min. memory needed in ccsd:                  7935
 Max. memory used in ccsd:                    9077
 Max. memory used in cckext:                 41170 (28 integral passes)



 **********************************************************************************************************************************
 DATASETS  * FILE   NREC   LENGTH (MB)   RECORD NAMES
              1      20       30.09       500      700      610      900      950      970     1000      129      960     1100   
                                          VAR     GEOM    BASINP   SYMINP    ZMAT    AOBASIS   BASIS     P2S    ABASIS      S 
                                         1400     1410     1200     1210     1080     1600     1650     1300     1700     1380   
                                           T        V       H0       H01     AOSYM     SMH    MOLCAS    ERIS     OPER     JKOP   

              3       5       14.77       500      610      700     1000     2100   
                                          VAR    BASINP    GEOM     BASIS     RHF  

 PROGRAMS   *        TOTAL      CISD       INT   RESTART
 CPU TIMES  *         0.53      0.22      0.18      0.02
 REAL TIME  *         0.75 SEC
 DISK USED  *        49.46 MB
 **********************************************************************************************************************************
 Molecular orbitals read from record     2100.3  Type=RHF/CANONICAL (state 1.1)
 Occupation numbers read from record     2100.3  Type=RHF/RHF (state 1.1)
 Orbital energies read from record       2100.3  Type=RHF/CANONICAL (state 1.1)
 Redundancy group numbers read from rec  2100.3  Type=RHF/RHF (state 1.1)

 CISD/cc-pVDZ energy=   -108.988762430012

            CISD
   -108.98876243
 **********************************************************************************************************************************
 Molpro calculation terminated
