
 Primary working directories    : /scr/yuriaoto/job.022408/molpro.nncRyK2byS
 Secondary working directories  : /scr/yuriaoto/job.022408/molpro.nncRyK2byS
 Wavefunction directory         : /scr/yuriaoto/job.022408/
 Main file repository           : /scr/yuriaoto/job.022408/molpro.nncRyK2byS/

 id        : yuriaoto

 Nodes             nprocs
 t-rex.ufabc.int.br    1

 Using customized tuning parameters: mindgm=8; mindgv=16; mindgc=1; mindgr=1; noblas=0; minvec=7
 default implementation of scratch files=df  


 Variables initialized (933), CPU time= 0.00 sec
 ***,
 memory,40,m
 gprint,orbital,basis,civector
 gthresh,thrprint=0,printci=0.0
 file,3,wfu.dat,old
 
 {cisd,CC_NORM_MAX=10.0
 thresh,printci=0.0,ENERGY=1.0E-10,COEFF=1.0E-12
 print,ref=1
 core,0
 wf,6,1,0;
 }
 
 Commands  initialized (760), CPU time= 0.01 sec, 617 directives.
 Default parameters read. Elapsed time= 0.03 sec

 Checking input...
 Passed
1


                                         ***  PROGRAM SYSTEM MOLPRO  ***
                                       Copyright, TTI GmbH Stuttgart, 2015
                                    Version 2019.2 linked Abr  7 2019 15:10:35


 **********************************************************************************************************************************
 LABEL *                                                                                 
  64 bit serial version                                                                  DATE: 21-Oct-19          TIME: 10:34:34  
 **********************************************************************************************************************************

 SHA1:             3a8a58c585c929645742fb5a1b7541a4ad1da699
 **********************************************************************************************************************************


 THRESHOLDS:

 ZERO    =  1.00D-12  ONEINT  =  1.00D-12  TWOINT  =  1.00D-11  PREFAC  =  1.00D-14  XXXXXX  =  1.00D-09  EORDER  =  1.00D-04
 ENERGY  =  0.00D+00  ETEST   =  0.00D+00  EDENS   =  0.00D+00  THRDEDEF=  1.00D-06  GRADIENT=  1.00D-02  STEP    =  1.00D-03
 ORBITAL =  1.00D-05  CIVEC   =  1.00D-05  COEFF   =  1.00D-04  PRINTCI =  0.00D+00  PUNCHCI =  9.90D+01  OPTGRAD =  3.00D-04
 OPTENERG=  1.00D-06  OPTSTEP =  3.00D-04  THRGRAD =  1.00D-10  COMPRESS=  1.00D-11  VARMIN  =  1.00D-07  VARMAX  =  1.00D-03
 THRDOUB =  0.00D+00  THRDIV  =  1.00D-05  THRRED  =  1.00D-07  THRPSP  =  1.00D+00  THRDC   =  1.00D-10  THRCS   =  1.00D-10
 THRNRM  =  1.00D-08  THREQ   =  0.00D+00  THRDE   =  1.00D+00  THRREF  =  1.00D-05  SPARFAC =  1.00D+00  THRDLP  =  1.00D-07
 THRDIA  =  1.00D-10  THRDLS  =  1.00D-07  THRGPS  =  0.00D+00  THRKEX  =  0.00D+00  THRDIS  =  2.00D-01  THRVAR  =  1.00D-10
 THRLOC  =  1.00D-06  THRGAP  =  1.00D-06  THRLOCT = -1.00D+00  THRGAPT = -1.00D+00  THRORB  =  1.00D-06  THRMLTP =  0.00D+00
 THRCPQCI=  1.00D-10  KEXTA   =  0.00D+00  THRCOARS=  0.00D+00  SYMTOL  =  1.00D-06  GRADTOL =  1.00D-06  THROVL  =  1.00D-08
 THRORTH =  1.00D-08  GRID    =  1.00D-06  GRIDMAX =  1.00D-03  DTMAX   =  0.00D+00  THROCCDE=  1.00D-01  THROCCDE=  1.00D-01
 THRPRINT=  0.00D+00


 Variable memory set to   40000000 words,  buffer space 



 Permanent file  3  wfu.dat  assigned.  Implementation=df    Size= 14.09 MB


 PROGRAM * RESTART 


 Reading variables from file 3

 _FNUC           =      0.00000000
 _BASIS          =    6-31G
 _NELEC          =      6.00000000
 _PROGRAM        =    RHF-SCF
 _DMX            =      0.00000000
 _DMY            =      0.00000000
 _DMZ            =     -0.00000000
 _DMX_SCF        =      0.00000000
 _DMY_SCF        =      0.00000000
 _DMZ_SCF        =     -0.00000000
 _HOMO           =      3.10000000
 _EHOMO          =     -0.17851751
 _LUMO           =      4.10000000
 _ELUMO          =      0.01777237
 _ENERGY         =    -14.86544674
 _ENERGY_METHOD  =    RHF
 _ENERGY_BASIS   =    6-31G
 _ENUC           =      1.80000000
 _EPS1(1:18)     =     -2.44083704    -2.44048610    -0.17851751     0.01777237     0.04562579     0.04562579
                        0.06347954     0.09250721     0.09250721     0.13971383     0.19419332     0.20818018
                        0.20818018     0.22544142     0.26575139     0.27049342     0.27049342     0.54809004
 _IPROC_MPP      =      0.00000000
 _IPROC_MPPX     =      0.00000000
 _ORBITAL        =   2100.30000000
 _STATUS         =      1.00000000
 _LASTORB        =    RHF
 _OUTPUT         =    /scr/yuriaoto/job.022406/RHF.xml
 _PGROUP         =    C1  
 _TIME           =    10:34:13
 R               =      5.00000000

 Geometry written to block  1 of record 700


 **********************************************************************************************************************************
 DATASETS  * FILE   NREC   LENGTH (MB)   RECORD NAMES
              3       5       14.77       500      610      700     1000     2100   
                                          VAR    BASINP    GEOM     BASIS     RHF  

 PROGRAMS   *        TOTAL   RESTART
 CPU TIMES  *         0.09      0.01
 REAL TIME  *         0.11 SEC
 DISK USED  *        26.84 MB
 **********************************************************************************************************************************


 Recomputing integrals since basis changed


 Using spherical harmonics

 Library entry LI     S 6-31G                selected for orbital group  1
 Library entry LI     P 6-31G                selected for orbital group  1


 PROGRAM * SEWARD (Integral evaluation for generally contracted gaussian basis sets)     Author: Roland Lindh, 1990

 Geometry written to block  1 of record 700

 Orientation using atomic masses  
 Molecule type: Linear
 Rotational constants:      20.8009354     20.8009354      0.0000000 GHz  (calculated with average atomic masses)

 Point group  C1  



 ATOMIC COORDINATES

 NR  ATOM    CHARGE       X              Y              Z

   1  LI1     3.00    0.000000000    0.000000000   -2.500000000
   2  LI2     3.00    0.000000000    0.000000000    2.500000000

 Bond lengths in Bohr (Angstrom)

 1-2  5.000000000
     ( 2.645886055)


 BASIS DATA

   Nr Sym  Nuc  Type         Exponents   Contraction coefficients

    1.1 A     1  1s         642.418910     0.002143
                             96.798515     0.016209
                             22.091121     0.077316
                              6.201070     0.245786
                              1.935118     0.470189
                              0.636736     0.345471
    2.1 A     1  1s           2.324918    -0.035092
                              0.632430    -0.191233
                              0.079053     1.083988
    3.1 A     1  1s           0.035962     1.000000
    4.1 A     1  2px          2.324918     0.008942
                              0.632430     0.141009
                              0.079053     0.945364
    5.1 A     1  2py          2.324918     0.008942
                              0.632430     0.141009
                              0.079053     0.945364
    6.1 A     1  2pz          2.324918     0.008942
                              0.632430     0.141009
                              0.079053     0.945364
    7.1 A     1  2px          0.035962     1.000000
    8.1 A     1  2py          0.035962     1.000000
    9.1 A     1  2pz          0.035962     1.000000
   10.1 A     2  1s         642.418910     0.002143
                             96.798515     0.016209
                             22.091121     0.077316
                              6.201070     0.245786
                              1.935118     0.470189
                              0.636736     0.345471
   11.1 A     2  1s           2.324918    -0.035092
                              0.632430    -0.191233
                              0.079053     1.083988
   12.1 A     2  1s           0.035962     1.000000
   13.1 A     2  2px          2.324918     0.008942
                              0.632430     0.141009
                              0.079053     0.945364
   14.1 A     2  2py          2.324918     0.008942
                              0.632430     0.141009
                              0.079053     0.945364
   15.1 A     2  2pz          2.324918     0.008942
                              0.632430     0.141009
                              0.079053     0.945364
   16.1 A     2  2px          0.035962     1.000000
   17.1 A     2  2py          0.035962     1.000000
   18.1 A     2  2pz          0.035962     1.000000

 NUCLEAR CHARGE:                    6
 NUMBER OF PRIMITIVE AOS:          44
 NUMBER OF SYMMETRY AOS:           44
 NUMBER OF CONTRACTIONS:           18   (   18A   )
 NUMBER OF CORE ORBITALS:           2   (    2A   )
 NUMBER OF VALENCE ORBITALS:        8   (    8A   )


 NUCLEAR REPULSION ENERGY    1.80000000

 EXTRA SYMMETRY OF AOS IN SYMMETRY 1:   1 1 1 2 3 1 2 3 1 1   1 1 2 3 1 2 3 1

 Eigenvalues of metric

         1 0.422E-02 0.103E+00 0.108E+00 0.108E+00 0.112E+00 0.166E+00 0.180E+00 0.252E+00


 Contracted 2-electron integrals neglected if value below      1.0D-11
 AO integral compression algorithm  1   Integral accuracy      1.0D-11

     0.262 MB (compressed) written to integral file ( 49.2%)


 NUMBER OF SORTED TWO-ELECTRON INTEGRALS:      14706.     BUFFER LENGTH:  32768
 NUMBER OF SEGMENTS:   1  SEGMENT LENGTH:      14706      RECORD LENGTH: 524288

 Memory used in sort:       0.57 MW

 SORT1 READ       26487. AND WROTE        4350. INTEGRALS IN      1 RECORDS. CPU TIME:     0.00 SEC, REAL TIME:     0.00 SEC
 SORT2 READ        4350. AND WROTE       14706. INTEGRALS IN      1 RECORDS. CPU TIME:     0.01 SEC, REAL TIME:     0.02 SEC

 FILE SIZES:   FILE 1:    30.2 MBYTE,  FILE 4:     4.2 MBYTE,   TOTAL:     34.4 MBYTE

 OPERATOR DM      FOR CENTER  0  COORDINATES:    0.000000    0.000000    0.000000


 **********************************************************************************************************************************
 DATASETS  * FILE   NREC   LENGTH (MB)   RECORD NAMES
              1      19       29.99       500      700      610      900      950      970     1000      129      960     1100   
                                          VAR     GEOM    BASINP   SYMINP    ZMAT    AOBASIS   BASIS     P2S    ABASIS      S 
                                         1400     1410     1200     1210     1080     1600     1650     1300     1700   
                                           T        V       H0       H01     AOSYM     SMH    MOLCAS    ERIS     OPER   

              3       5       14.77       500      610      700     1000     2100   
                                          VAR    BASINP    GEOM     BASIS     RHF  

 PROGRAMS   *        TOTAL       INT   RESTART
 CPU TIMES  *         0.20      0.11      0.01
 REAL TIME  *         0.35 SEC
 DISK USED  *        49.44 MB
 **********************************************************************************************************************************


 PROGRAM * CISD (Closed-shell CI(SD))     Authors: C. Hampel, H.-J. Werner, 1991, M. Deegan, P.J. Knowles, 1992


 Input parameters for THRESH:

 ENERGY   =    1.00D-10
 COEFF    =    1.00D-12
 PRINTCI  =    0.000000
 THRPRINT =    0.000000

 Convergence thresholds:  THRVAR = 1.00D-24  THRDEN = 1.00D-10

 Number of closed-shell orbitals:   3 (   3 )
 Number of external orbitals:      15 (  15 )

 Molecular orbitals read from record     2100.3  Type=RHF/CANONICAL (state 1.1)

 Number of N-1 electron functions:               3
 Number of N-2 electron functions:               6
 Number of singly external CSFs:                45
 Number of doubly external CSFs:              1035
 Total number of CSFs:                        1081

 Length of J-op  integral file:               0.00 MB
 Length of K-op  integral file:               0.05 MB

 Integral transformation finished. Total CPU:   0.00 sec, npass=  1  Memory used:   0.07 MW

 Reference energy:                    -14.86544674

 MP2 singlet pair energy:              -0.01624341
 MP2 triplet pair energy:              -0.00012344
 MP2 correlation energy:               -0.01636685
 MP2 total energy:                    -14.88181359

 SCS-MP2 correlation energy:           -0.01956890   (PS=  1.200000  PT=  0.333333)
 SCS-MP2 total energy:                -14.88501564

 ITER.      SQ.NORM     CORR.ENERGY   TOTAL ENERGY   ENERGY CHANGE        DEN1      VAR(S)    VAR(P)  DIIS     TIME  TIME/IT
   1      1.04773344    -0.02423152   -14.88967826    -0.00786467    -0.00430965  0.12D-03  0.27D-02  1  1     0.02     0.01
   2      1.08148774    -0.02557049   -14.89101723    -0.00133897    -0.00530886  0.21D-04  0.23D-03  2  2     0.03     0.01
   3      1.09695886    -0.02756468   -14.89301142    -0.00199419    -0.00171723  0.16D-05  0.45D-04  3  3     0.03     0.00
   4      1.09950095    -0.02780541   -14.89325215    -0.00024073    -0.00007271  0.65D-06  0.35D-05  4  4     0.03     0.00
   5      1.10016479    -0.02783506   -14.89328180    -0.00002965    -0.00003194  0.11D-07  0.53D-06  5  5     0.04     0.00
   6      1.10049865    -0.02783768   -14.89328442    -0.00000262    -0.00002946  0.18D-07  0.12D-06  6  6     0.04     0.00
   7      1.10051399    -0.02783807   -14.89328481    -0.00000039     0.00000176  0.77D-08  0.17D-07  6  2     0.05     0.00
   8      1.10055116    -0.02783818   -14.89328492    -0.00000011    -0.00000342  0.19D-08  0.40D-08  6  1     0.05     0.00
   9      1.10055044    -0.02783820   -14.89328494    -0.00000002     0.00000007  0.23D-09  0.36D-09  6  4     0.05     0.00
  10      1.10055109    -0.02783820   -14.89328494    -0.00000000    -0.00000018  0.39D-10  0.53D-10  6  3     0.05     0.00
  11      1.10054852    -0.02783820   -14.89328494    -0.00000000     0.00000023  0.85D-11  0.37D-11  6  5     0.06     0.00
  12      1.10054811    -0.02783820   -14.89328494    -0.00000000     0.00000002  0.27D-11  0.10D-11  6  6     0.06     0.00
  13      1.10054779    -0.02783820   -14.89328494    -0.00000000     0.00000001  0.61D-12  0.33D-12  6  2     0.06     0.00
  14      1.10054761    -0.02783820   -14.89328494    -0.00000000     0.00000001  0.83D-13  0.12D-12  6  1     0.07     0.00
  15      1.10054749    -0.02783820   -14.89328494    -0.00000000     0.00000001  0.30D-14  0.38D-13  6  4     0.07     0.00
  16      1.10054744    -0.02783820   -14.89328494    -0.00000000     0.00000000  0.76D-15  0.95D-14  6  3     0.07     0.00
  17      1.10054743    -0.02783820   -14.89328494    -0.00000000     0.00000000  0.68D-15  0.13D-14  6  5     0.08     0.00
  18      1.10054743    -0.02783820   -14.89328494    -0.00000000    -0.00000000  0.18D-15  0.26D-15  6  6     0.08     0.00
  19      1.10054744    -0.02783820   -14.89328494    -0.00000000    -0.00000000  0.39D-16  0.63D-16  6  2     0.08     0.00
  20      1.10054744    -0.02783820   -14.89328494     0.00000000    -0.00000000  0.84D-17  0.14D-16  6  1     0.08     0.00
  21      1.10054744    -0.02783820   -14.89328494     0.00000000    -0.00000000  0.24D-17  0.28D-17  6  4     0.09     0.00
  22      1.10054744    -0.02783820   -14.89328494     0.00000000    -0.00000000  0.75D-18  0.64D-18  6  3     0.09     0.00
  23      1.10054744    -0.02783820   -14.89328494     0.00000000     0.00000000  0.16D-18  0.11D-18  6  6     0.09     0.00
  24      1.10054744    -0.02783820   -14.89328494     0.00000000     0.00000000  0.11D-19  0.19D-19  6  5     0.10     0.00
  25      1.10054744    -0.02783820   -14.89328494     0.00000000     0.00000000  0.92D-21  0.62D-20  6  2     0.10     0.00
  26      1.10054744    -0.02783820   -14.89328494     0.00000000     0.00000000  0.50D-22  0.42D-21  6  4     0.10     0.00
  27      1.10054744    -0.02783820   -14.89328494     0.00000000     0.00000000  0.35D-22  0.61D-22  6  1     0.10     0.00
  28      1.10054744    -0.02783820   -14.89328494     0.00000000     0.00000000  0.40D-23  0.87D-23  6  6     0.11     0.00
  29      1.10054744    -0.02783820   -14.89328494     0.00000000     0.00000000  0.71D-24  0.18D-23  6  3     0.11     0.00
  30      1.10054744    -0.02783820   -14.89328494     0.00000000     0.00000000  0.25D-25  0.44D-24  6  2     0.11     0.00


 ! DIPOLE MOMENTS:                      0.00000000     0.00000000     0.00000000



 Norm of t1 vector:      0.03682972      S-energy:    -0.00003431      T1 diagnostic:  0.01063182

 Singles amplitudes (print threshold =  0.000E+00):

         I         SYM. A    A   T(IA)

         1         1         1      0.00000000
         1         1         2     -0.00000000
         1         1         3      0.00000000
         1         1         4      0.00009371
         1         1         5      0.00000000
         1         1         6     -0.00000000
         1         1         7      0.00000000
         1         1         8     -0.00015320
         1         1         9      0.00000000
         1         1        10     -0.00000000
         1         1        11      0.00012177
         1         1        12      0.00000000
         1         1        13      0.00000000
         1         1        14      0.00000000
         1         1        15      0.00000000
         2         1         1     -0.00033343
         2         1         2     -0.00000000
         2         1         3     -0.00000000
         2         1         4      0.00000000
         2         1         5      0.00000000
         2         1         6      0.00000000
         2         1         7      0.00034807
         2         1         8     -0.00000000
         2         1         9     -0.00000000
         2         1        10      0.00000000
         2         1        11     -0.00000000
         2         1        12      0.00001177
         2         1        13     -0.00000000
         2         1        14      0.00000000
         2         1        15      0.00028694
         3         1         1     -0.00000000
         3         1         2     -0.00000000
         3         1         3      0.00000000
         3         1         4     -0.01701174
         3         1         5      0.00000000
         3         1         6      0.00000000
         3         1         7      0.00000000
         3         1         8      0.00883599
         3         1         9      0.00000000
         3         1        10      0.00000000
         3         1        11      0.01761756
         3         1        12     -0.00000000
         3         1        13     -0.00000000
         3         1        14     -0.00000000
         3         1        15      0.00000000

 Doubles amplitudes (print threshold =  0.000E+00):

         I         J         SYM. A    SYM. B    A         B      T(IJ, AB)

         1         1         1         1         1         1     -0.00043413
         1         1         1         1         1         2     -0.00000000
         1         1         1         1         1         3     -0.00000000
         1         1         1         1         1         4      0.00000000
         1         1         1         1         1         5      0.00000000
         1         1         1         1         1         6      0.00000000
         1         1         1         1         1         7      0.00075244
         1         1         1         1         1         8      0.00000000
         1         1         1         1         1         9     -0.00000000
         1         1         1         1         1        10     -0.00000000
         1         1         1         1         1        11     -0.00000000
         1         1         1         1         1        12     -0.00021704
         1         1         1         1         1        13      0.00000000
         1         1         1         1         1        14      0.00000000
         1         1         1         1         1        15     -0.00001225
         1         1         1         1         2         1     -0.00000000
         1         1         1         1         2         2      0.00016274
         1         1         1         1         2         3     -0.00000000
         1         1         1         1         2         4     -0.00000000
         1         1         1         1         2         5      0.00000000
         1         1         1         1         2         6      0.00000000
         1         1         1         1         2         7     -0.00000000
         1         1         1         1         2         8     -0.00000000
         1         1         1         1         2         9     -0.00008078
         1         1         1         1         2        10     -0.00013950
         1         1         1         1         2        11     -0.00000000
         1         1         1         1         2        12     -0.00000000
         1         1         1         1         2        13      0.00000000
         1         1         1         1         2        14      0.00000000
         1         1         1         1         2        15      0.00000000
         1         1         1         1         3         1     -0.00000000
         1         1         1         1         3         2     -0.00000000
         1         1         1         1         3         3      0.00016274
         1         1         1         1         3         4     -0.00000000
         1         1         1         1         3         5     -0.00000000
         1         1         1         1         3         6      0.00000000
         1         1         1         1         3         7      0.00000000
         1         1         1         1         3         8     -0.00000000
         1         1         1         1         3         9      0.00013950
         1         1         1         1         3        10     -0.00008078
         1         1         1         1         3        11     -0.00000000
         1         1         1         1         3        12     -0.00000000
         1         1         1         1         3        13      0.00000000
         1         1         1         1         3        14     -0.00000000
         1         1         1         1         3        15      0.00000000
         1         1         1         1         4         1      0.00000000
         1         1         1         1         4         2     -0.00000000
         1         1         1         1         4         3     -0.00000000
         1         1         1         1         4         4     -0.00002787
         1         1         1         1         4         5      0.00000000
         1         1         1         1         4         6      0.00000000
         1         1         1         1         4         7     -0.00000000
         1         1         1         1         4         8      0.00023700
         1         1         1         1         4         9      0.00000000
         1         1         1         1         4        10     -0.00000000
         1         1         1         1         4        11      0.00010104
         1         1         1         1         4        12      0.00000000
         1         1         1         1         4        13      0.00000000
         1         1         1         1         4        14      0.00000000
         1         1         1         1         4        15     -0.00000000
         1         1         1         1         5         1      0.00000000
         1         1         1         1         5         2      0.00000000
         1         1         1         1         5         3     -0.00000000
         1         1         1         1         5         4      0.00000000
         1         1         1         1         5         5     -0.00001354
         1         1         1         1         5         6     -0.00000000
         1         1         1         1         5         7     -0.00000000
         1         1         1         1         5         8     -0.00000000
         1         1         1         1         5         9     -0.00000000
         1         1         1         1         5        10     -0.00000000
         1         1         1         1         5        11      0.00000000
         1         1         1         1         5        12      0.00000000
         1         1         1         1         5        13      0.00000486
         1         1         1         1         5        14     -0.00014040
         1         1         1         1         5        15      0.00000000
         1         1         1         1         6         1      0.00000000
         1         1         1         1         6         2      0.00000000
         1         1         1         1         6         3      0.00000000
         1         1         1         1         6         4      0.00000000
         1         1         1         1         6         5     -0.00000000
         1         1         1         1         6         6     -0.00001354
         1         1         1         1         6         7     -0.00000000
         1         1         1         1         6         8     -0.00000000
         1         1         1         1         6         9      0.00000000
         1         1         1         1         6        10     -0.00000000
         1         1         1         1         6        11      0.00000000
         1         1         1         1         6        12      0.00000000
         1         1         1         1         6        13     -0.00014040
         1         1         1         1         6        14     -0.00000486
         1         1         1         1         6        15      0.00000000
         1         1         1         1         7         1      0.00075244
         1         1         1         1         7         2     -0.00000000
         1         1         1         1         7         3      0.00000000
         1         1         1         1         7         4     -0.00000000
         1         1         1         1         7         5     -0.00000000
         1         1         1         1         7         6     -0.00000000
         1         1         1         1         7         7     -0.00112649
         1         1         1         1         7         8      0.00000000
         1         1         1         1         7         9     -0.00000000
         1         1         1         1         7        10     -0.00000000
         1         1         1         1         7        11     -0.00000000
         1         1         1         1         7        12      0.00032440
         1         1         1         1         7        13     -0.00000000
         1         1         1         1         7        14     -0.00000000
         1         1         1         1         7        15      0.00003609
         1         1         1         1         8         1      0.00000000
         1         1         1         1         8         2     -0.00000000
         1         1         1         1         8         3     -0.00000000
         1         1         1         1         8         4      0.00023700
         1         1         1         1         8         5     -0.00000000
         1         1         1         1         8         6     -0.00000000
         1         1         1         1         8         7      0.00000000
         1         1         1         1         8         8     -0.00072708
         1         1         1         1         8         9     -0.00000000
         1         1         1         1         8        10     -0.00000000
         1         1         1         1         8        11     -0.00041956
         1         1         1         1         8        12     -0.00000000
         1         1         1         1         8        13     -0.00000000
         1         1         1         1         8        14      0.00000000
         1         1         1         1         8        15     -0.00000000
         1         1         1         1         9         1     -0.00000000
         1         1         1         1         9         2     -0.00008078
         1         1         1         1         9         3      0.00013950
         1         1         1         1         9         4      0.00000000
         1         1         1         1         9         5     -0.00000000
         1         1         1         1         9         6      0.00000000
         1         1         1         1         9         7     -0.00000000
         1         1         1         1         9         8     -0.00000000
         1         1         1         1         9         9     -0.00096464
         1         1         1         1         9        10     -0.00000000
         1         1         1         1         9        11      0.00000000
         1         1         1         1         9        12     -0.00000000
         1         1         1         1         9        13      0.00000000
         1         1         1         1         9        14     -0.00000000
         1         1         1         1         9        15     -0.00000000
         1         1         1         1        10         1     -0.00000000
         1         1         1         1        10         2     -0.00013950
         1         1         1         1        10         3     -0.00008078
         1         1         1         1        10         4     -0.00000000
         1         1         1         1        10         5     -0.00000000
         1         1         1         1        10         6     -0.00000000
         1         1         1         1        10         7     -0.00000000
         1         1         1         1        10         8     -0.00000000
         1         1         1         1        10         9     -0.00000000
         1         1         1         1        10        10     -0.00096464
         1         1         1         1        10        11     -0.00000000
         1         1         1         1        10        12     -0.00000000
         1         1         1         1        10        13     -0.00000000
         1         1         1         1        10        14     -0.00000000
         1         1         1         1        10        15      0.00000000
         1         1         1         1        11         1     -0.00000000
         1         1         1         1        11         2     -0.00000000
         1         1         1         1        11         3     -0.00000000
         1         1         1         1        11         4      0.00010104
         1         1         1         1        11         5      0.00000000
         1         1         1         1        11         6      0.00000000
         1         1         1         1        11         7     -0.00000000
         1         1         1         1        11         8     -0.00041956
         1         1         1         1        11         9      0.00000000
         1         1         1         1        11        10     -0.00000000
         1         1         1         1        11        11     -0.00068912
         1         1         1         1        11        12     -0.00000000
         1         1         1         1        11        13     -0.00000000
         1         1         1         1        11        14      0.00000000
         1         1         1         1        11        15      0.00000000
         1         1         1         1        12         1     -0.00021704
         1         1         1         1        12         2     -0.00000000
         1         1         1         1        12         3     -0.00000000
         1         1         1         1        12         4      0.00000000
         1         1         1         1        12         5      0.00000000
         1         1         1         1        12         6      0.00000000
         1         1         1         1        12         7      0.00032440
         1         1         1         1        12         8     -0.00000000
         1         1         1         1        12         9     -0.00000000
         1         1         1         1        12        10     -0.00000000
         1         1         1         1        12        11     -0.00000000
         1         1         1         1        12        12     -0.00079333
         1         1         1         1        12        13      0.00000000
         1         1         1         1        12        14      0.00000000
         1         1         1         1        12        15     -0.00080490
         1         1         1         1        13         1      0.00000000
         1         1         1         1        13         2      0.00000000
         1         1         1         1        13         3      0.00000000
         1         1         1         1        13         4      0.00000000
         1         1         1         1        13         5      0.00000486
         1         1         1         1        13         6     -0.00014040
         1         1         1         1        13         7     -0.00000000
         1         1         1         1        13         8     -0.00000000
         1         1         1         1        13         9      0.00000000
         1         1         1         1        13        10     -0.00000000
         1         1         1         1        13        11     -0.00000000
         1         1         1         1        13        12      0.00000000
         1         1         1         1        13        13     -0.00133226
         1         1         1         1        13        14     -0.00000000
         1         1         1         1        13        15     -0.00000000
         1         1         1         1        14         1      0.00000000
         1         1         1         1        14         2      0.00000000
         1         1         1         1        14         3     -0.00000000
         1         1         1         1        14         4      0.00000000
         1         1         1         1        14         5     -0.00014040
         1         1         1         1        14         6     -0.00000486
         1         1         1         1        14         7     -0.00000000
         1         1         1         1        14         8      0.00000000
         1         1         1         1        14         9     -0.00000000
         1         1         1         1        14        10     -0.00000000
         1         1         1         1        14        11      0.00000000
         1         1         1         1        14        12      0.00000000
         1         1         1         1        14        13     -0.00000000
         1         1         1         1        14        14     -0.00133226
         1         1         1         1        14        15      0.00000000
         1         1         1         1        15         1     -0.00001225
         1         1         1         1        15         2      0.00000000
         1         1         1         1        15         3      0.00000000
         1         1         1         1        15         4     -0.00000000
         1         1         1         1        15         5      0.00000000
         1         1         1         1        15         6      0.00000000
         1         1         1         1        15         7      0.00003609
         1         1         1         1        15         8     -0.00000000
         1         1         1         1        15         9     -0.00000000
         1         1         1         1        15        10      0.00000000
         1         1         1         1        15        11      0.00000000
         1         1         1         1        15        12     -0.00080490
         1         1         1         1        15        13     -0.00000000
         1         1         1         1        15        14      0.00000000
         1         1         1         1        15        15     -0.00130901
         2         1         1         1         1         1      0.00000000
         2         1         1         1         1         2     -0.00000000
         2         1         1         1         1         3     -0.00000000
         2         1         1         1         1         4      0.00008832
         2         1         1         1         1         5      0.00000000
         2         1         1         1         1         6     -0.00000000
         2         1         1         1         1         7     -0.00000000
         2         1         1         1         1         8      0.00000218
         2         1         1         1         1         9     -0.00000000
         2         1         1         1         1        10     -0.00000000
         2         1         1         1         1        11      0.00049972
         2         1         1         1         1        12      0.00000000
         2         1         1         1         1        13      0.00000000
         2         1         1         1         1        14      0.00000000
         2         1         1         1         1        15     -0.00000000
         2         1         1         1         2         1     -0.00000000
         2         1         1         1         2         2      0.00000000
         2         1         1         1         2         3     -0.00000000
         2         1         1         1         2         4     -0.00000000
         2         1         1         1         2         5     -0.00002397
         2         1         1         1         2         6     -0.00001906
         2         1         1         1         2         7      0.00000000
         2         1         1         1         2         8      0.00000000
         2         1         1         1         2         9     -0.00000000
         2         1         1         1         2        10     -0.00000000
         2         1         1         1         2        11     -0.00000000
         2         1         1         1         2        12     -0.00000000
         2         1         1         1         2        13     -0.00017547
         2         1         1         1         2        14     -0.00023708
         2         1         1         1         2        15     -0.00000000
         2         1         1         1         3         1     -0.00000000
         2         1         1         1         3         2     -0.00000000
         2         1         1         1         3         3      0.00000000
         2         1         1         1         3         4     -0.00000000
         2         1         1         1         3         5      0.00001906
         2         1         1         1         3         6     -0.00002397
         2         1         1         1         3         7      0.00000000
         2         1         1         1         3         8      0.00000000
         2         1         1         1         3         9      0.00000000
         2         1         1         1         3        10     -0.00000000
         2         1         1         1         3        11      0.00000000
         2         1         1         1         3        12     -0.00000000
         2         1         1         1         3        13     -0.00023708
         2         1         1         1         3        14      0.00017547
         2         1         1         1         3        15     -0.00000000
         2         1         1         1         4         1      0.00009708
         2         1         1         1         4         2     -0.00000000
         2         1         1         1         4         3     -0.00000000
         2         1         1         1         4         4     -0.00000000
         2         1         1         1         4         5      0.00000000
         2         1         1         1         4         6      0.00000000
         2         1         1         1         4         7     -0.00011854
         2         1         1         1         4         8     -0.00000000
         2         1         1         1         4         9     -0.00000000
         2         1         1         1         4        10     -0.00000000
         2         1         1         1         4        11      0.00000000
         2         1         1         1         4        12     -0.00023343
         2         1         1         1         4        13      0.00000000
         2         1         1         1         4        14      0.00000000
         2         1         1         1         4        15     -0.00036753
         2         1         1         1         5         1      0.00000000
         2         1         1         1         5         2     -0.00002630
         2         1         1         1         5         3      0.00002091
         2         1         1         1         5         4      0.00000000
         2         1         1         1         5         5      0.00000000
         2         1         1         1         5         6     -0.00000000
         2         1         1         1         5         7      0.00000000
         2         1         1         1         5         8     -0.00000000
         2         1         1         1         5         9     -0.00012099
         2         1         1         1         5        10     -0.00004751
         2         1         1         1         5        11      0.00000000
         2         1         1         1         5        12      0.00000000
         2         1         1         1         5        13      0.00000000
         2         1         1         1         5        14     -0.00000000
         2         1         1         1         5        15      0.00000000
         2         1         1         1         6         1     -0.00000000
         2         1         1         1         6         2     -0.00002091
         2         1         1         1         6         3     -0.00002630
         2         1         1         1         6         4      0.00000000
         2         1         1         1         6         5     -0.00000000
         2         1         1         1         6         6      0.00000000
         2         1         1         1         6         7      0.00000000
         2         1         1         1         6         8     -0.00000000
         2         1         1         1         6         9      0.00004751
         2         1         1         1         6        10     -0.00012099
         2         1         1         1         6        11     -0.00000000
         2         1         1         1         6        12     -0.00000000
         2         1         1         1         6        13     -0.00000000
         2         1         1         1         6        14     -0.00000000
         2         1         1         1         6        15      0.00000000
         2         1         1         1         7         1     -0.00000000
         2         1         1         1         7         2      0.00000000
         2         1         1         1         7         3      0.00000000
         2         1         1         1         7         4     -0.00010773
         2         1         1         1         7         5      0.00000000
         2         1         1         1         7         6      0.00000000
         2         1         1         1         7         7      0.00000000
         2         1         1         1         7         8     -0.00002614
         2         1         1         1         7         9      0.00000000
         2         1         1         1         7        10      0.00000000
         2         1         1         1         7        11     -0.00069841
         2         1         1         1         7        12     -0.00000000
         2         1         1         1         7        13     -0.00000000
         2         1         1         1         7        14     -0.00000000
         2         1         1         1         7        15      0.00000000
         2         1         1         1         8         1     -0.00001699
         2         1         1         1         8         2      0.00000000
         2         1         1         1         8         3      0.00000000
         2         1         1         1         8         4      0.00000000
         2         1         1         1         8         5     -0.00000000
         2         1         1         1         8         6     -0.00000000
         2         1         1         1         8         7     -0.00000242
         2         1         1         1         8         8      0.00000000
         2         1         1         1         8         9      0.00000000
         2         1         1         1         8        10      0.00000000
         2         1         1         1         8        11      0.00000000
         2         1         1         1         8        12      0.00066324
         2         1         1         1         8        13     -0.00000000
         2         1         1         1         8        14     -0.00000000
         2         1         1         1         8        15      0.00095655
         2         1         1         1         9         1     -0.00000000
         2         1         1         1         9         2     -0.00000000
         2         1         1         1         9         3      0.00000000
         2         1         1         1         9         4     -0.00000000
         2         1         1         1         9         5     -0.00011348
         2         1         1         1         9         6      0.00004456
         2         1         1         1         9         7      0.00000000
         2         1         1         1         9         8      0.00000000
         2         1         1         1         9         9      0.00000000
         2         1         1         1         9        10      0.00000000
         2         1         1         1         9        11      0.00000000
         2         1         1         1         9        12     -0.00000000
         2         1         1         1         9        13      0.00045281
         2         1         1         1         9        14     -0.00104540
         2         1         1         1         9        15      0.00000000
         2         1         1         1        10         1     -0.00000000
         2         1         1         1        10         2     -0.00000000
         2         1         1         1        10         3     -0.00000000
         2         1         1         1        10         4     -0.00000000
         2         1         1         1        10         5     -0.00004456
         2         1         1         1        10         6     -0.00011348
         2         1         1         1        10         7      0.00000000
         2         1         1         1        10         8      0.00000000
         2         1         1         1        10         9      0.00000000
         2         1         1         1        10        10      0.00000000
         2         1         1         1        10        11     -0.00000000
         2         1         1         1        10        12     -0.00000000
         2         1         1         1        10        13     -0.00104540
         2         1         1         1        10        14     -0.00045281
         2         1         1         1        10        15     -0.00000000
         2         1         1         1        11         1      0.00048691
         2         1         1         1        11         2      0.00000000
         2         1         1         1        11         3      0.00000000
         2         1         1         1        11         4      0.00000000
         2         1         1         1        11         5     -0.00000000
         2         1         1         1        11         6     -0.00000000
         2         1         1         1        11         7     -0.00068267
         2         1         1         1        11         8      0.00000000
         2         1         1         1        11         9      0.00000000
         2         1         1         1        11        10     -0.00000000
         2         1         1         1        11        11     -0.00000000
         2         1         1         1        11        12      0.00061625
         2         1         1         1        11        13     -0.00000000
         2         1         1         1        11        14     -0.00000000
         2         1         1         1        11        15      0.00040978
         2         1         1         1        12         1      0.00000000
         2         1         1         1        12         2     -0.00000000
         2         1         1         1        12         3     -0.00000000
         2         1         1         1        12         4     -0.00026322
         2         1         1         1        12         5      0.00000000
         2         1         1         1        12         6      0.00000000
         2         1         1         1        12         7     -0.00000000
         2         1         1         1        12         8      0.00072900
         2         1         1         1        12         9     -0.00000000
         2         1         1         1        12        10     -0.00000000
         2         1         1         1        12        11      0.00065788
         2         1         1         1        12        12     -0.00000000
         2         1         1         1        12        13      0.00000000
         2         1         1         1        12        14     -0.00000000
         2         1         1         1        12        15      0.00000000
         2         1         1         1        13         1      0.00000000
         2         1         1         1        13         2     -0.00018693
         2         1         1         1        13         3     -0.00025256
         2         1         1         1        13         4      0.00000000
         2         1         1         1        13         5      0.00000000
         2         1         1         1        13         6     -0.00000000
         2         1         1         1        13         7     -0.00000000
         2         1         1         1        13         8     -0.00000000
         2         1         1         1        13         9      0.00047341
         2         1         1         1        13        10     -0.00109295
         2         1         1         1        13        11     -0.00000000
         2         1         1         1        13        12      0.00000000
         2         1         1         1        13        13     -0.00000000
         2         1         1         1        13        14     -0.00000000
         2         1         1         1        13        15     -0.00000000
         2         1         1         1        14         1      0.00000000
         2         1         1         1        14         2     -0.00025256
         2         1         1         1        14         3      0.00018693
         2         1         1         1        14         4      0.00000000
         2         1         1         1        14         5     -0.00000000
         2         1         1         1        14         6     -0.00000000
         2         1         1         1        14         7     -0.00000000
         2         1         1         1        14         8     -0.00000000
         2         1         1         1        14         9     -0.00109295
         2         1         1         1        14        10     -0.00047341
         2         1         1         1        14        11     -0.00000000
         2         1         1         1        14        12     -0.00000000
         2         1         1         1        14        13     -0.00000000
         2         1         1         1        14        14     -0.00000000
         2         1         1         1        14        15     -0.00000000
         2         1         1         1        15         1     -0.00000000
         2         1         1         1        15         2     -0.00000000
         2         1         1         1        15         3     -0.00000000
         2         1         1         1        15         4     -0.00039786
         2         1         1         1        15         5      0.00000000
         2         1         1         1        15         6      0.00000000
         2         1         1         1        15         7      0.00000000
         2         1         1         1        15         8      0.00102388
         2         1         1         1        15         9      0.00000000
         2         1         1         1        15        10     -0.00000000
         2         1         1         1        15        11      0.00045209
         2         1         1         1        15        12      0.00000000
         2         1         1         1        15        13     -0.00000000
         2         1         1         1        15        14     -0.00000000
         2         1         1         1        15        15     -0.00000000
         2         2         1         1         1         1     -0.00043934
         2         2         1         1         1         2     -0.00000000
         2         2         1         1         1         3     -0.00000000
         2         2         1         1         1         4      0.00000000
         2         2         1         1         1         5      0.00000000
         2         2         1         1         1         6      0.00000000
         2         2         1         1         1         7      0.00075874
         2         2         1         1         1         8      0.00000000
         2         2         1         1         1         9     -0.00000000
         2         2         1         1         1        10     -0.00000000
         2         2         1         1         1        11     -0.00000000
         2         2         1         1         1        12     -0.00023297
         2         2         1         1         1        13      0.00000000
         2         2         1         1         1        14      0.00000000
         2         2         1         1         1        15     -0.00002860
         2         2         1         1         2         1     -0.00000000
         2         2         1         1         2         2      0.00016989
         2         2         1         1         2         3     -0.00000000
         2         2         1         1         2         4     -0.00000000
         2         2         1         1         2         5      0.00000000
         2         2         1         1         2         6      0.00000000
         2         2         1         1         2         7     -0.00000000
         2         2         1         1         2         8     -0.00000000
         2         2         1         1         2         9     -0.00007075
         2         2         1         1         2        10     -0.00012219
         2         2         1         1         2        11     -0.00000000
         2         2         1         1         2        12     -0.00000000
         2         2         1         1         2        13      0.00000000
         2         2         1         1         2        14      0.00000000
         2         2         1         1         2        15      0.00000000
         2         2         1         1         3         1     -0.00000000
         2         2         1         1         3         2     -0.00000000
         2         2         1         1         3         3      0.00016989
         2         2         1         1         3         4     -0.00000000
         2         2         1         1         3         5     -0.00000000
         2         2         1         1         3         6      0.00000000
         2         2         1         1         3         7      0.00000000
         2         2         1         1         3         8     -0.00000000
         2         2         1         1         3         9      0.00012219
         2         2         1         1         3        10     -0.00007075
         2         2         1         1         3        11     -0.00000000
         2         2         1         1         3        12     -0.00000000
         2         2         1         1         3        13      0.00000000
         2         2         1         1         3        14     -0.00000000
         2         2         1         1         3        15      0.00000000
         2         2         1         1         4         1      0.00000000
         2         2         1         1         4         2     -0.00000000
         2         2         1         1         4         3     -0.00000000
         2         2         1         1         4         4     -0.00001135
         2         2         1         1         4         5      0.00000000
         2         2         1         1         4         6      0.00000000
         2         2         1         1         4         7      0.00000000
         2         2         1         1         4         8      0.00020065
         2         2         1         1         4         9      0.00000000
         2         2         1         1         4        10     -0.00000000
         2         2         1         1         4        11      0.00007704
         2         2         1         1         4        12      0.00000000
         2         2         1         1         4        13      0.00000000
         2         2         1         1         4        14      0.00000000
         2         2         1         1         4        15     -0.00000000
         2         2         1         1         5         1      0.00000000
         2         2         1         1         5         2      0.00000000
         2         2         1         1         5         3     -0.00000000
         2         2         1         1         5         4      0.00000000
         2         2         1         1         5         5     -0.00001490
         2         2         1         1         5         6     -0.00000000
         2         2         1         1         5         7     -0.00000000
         2         2         1         1         5         8     -0.00000000
         2         2         1         1         5         9     -0.00000000
         2         2         1         1         5        10     -0.00000000
         2         2         1         1         5        11      0.00000000
         2         2         1         1         5        12      0.00000000
         2         2         1         1         5        13      0.00000515
         2         2         1         1         5        14     -0.00014889
         2         2         1         1         5        15     -0.00000000
         2         2         1         1         6         1      0.00000000
         2         2         1         1         6         2      0.00000000
         2         2         1         1         6         3      0.00000000
         2         2         1         1         6         4      0.00000000
         2         2         1         1         6         5     -0.00000000
         2         2         1         1         6         6     -0.00001490
         2         2         1         1         6         7     -0.00000000
         2         2         1         1         6         8     -0.00000000
         2         2         1         1         6         9      0.00000000
         2         2         1         1         6        10     -0.00000000
         2         2         1         1         6        11      0.00000000
         2         2         1         1         6        12      0.00000000
         2         2         1         1         6        13     -0.00014889
         2         2         1         1         6        14     -0.00000515
         2         2         1         1         6        15     -0.00000000
         2         2         1         1         7         1      0.00075874
         2         2         1         1         7         2     -0.00000000
         2         2         1         1         7         3      0.00000000
         2         2         1         1         7         4      0.00000000
         2         2         1         1         7         5     -0.00000000
         2         2         1         1         7         6     -0.00000000
         2         2         1         1         7         7     -0.00113402
         2         2         1         1         7         8      0.00000000
         2         2         1         1         7         9     -0.00000000
         2         2         1         1         7        10     -0.00000000
         2         2         1         1         7        11      0.00000000
         2         2         1         1         7        12      0.00034370
         2         2         1         1         7        13     -0.00000000
         2         2         1         1         7        14     -0.00000000
         2         2         1         1         7        15      0.00005589
         2         2         1         1         8         1      0.00000000
         2         2         1         1         8         2     -0.00000000
         2         2         1         1         8         3     -0.00000000
         2         2         1         1         8         4      0.00020065
         2         2         1         1         8         5     -0.00000000
         2         2         1         1         8         6     -0.00000000
         2         2         1         1         8         7      0.00000000
         2         2         1         1         8         8     -0.00064709
         2         2         1         1         8         9     -0.00000000
         2         2         1         1         8        10     -0.00000000
         2         2         1         1         8        11     -0.00036711
         2         2         1         1         8        12     -0.00000000
         2         2         1         1         8        13     -0.00000000
         2         2         1         1         8        14      0.00000000
         2         2         1         1         8        15      0.00000000
         2         2         1         1         9         1     -0.00000000
         2         2         1         1         9         2     -0.00007075
         2         2         1         1         9         3      0.00012219
         2         2         1         1         9         4      0.00000000
         2         2         1         1         9         5     -0.00000000
         2         2         1         1         9         6      0.00000000
         2         2         1         1         9         7     -0.00000000
         2         2         1         1         9         8     -0.00000000
         2         2         1         1         9         9     -0.00091100
         2         2         1         1         9        10      0.00000000
         2         2         1         1         9        11      0.00000000
         2         2         1         1         9        12     -0.00000000
         2         2         1         1         9        13      0.00000000
         2         2         1         1         9        14     -0.00000000
         2         2         1         1         9        15      0.00000000
         2         2         1         1        10         1     -0.00000000
         2         2         1         1        10         2     -0.00012219
         2         2         1         1        10         3     -0.00007075
         2         2         1         1        10         4     -0.00000000
         2         2         1         1        10         5     -0.00000000
         2         2         1         1        10         6     -0.00000000
         2         2         1         1        10         7     -0.00000000
         2         2         1         1        10         8     -0.00000000
         2         2         1         1        10         9      0.00000000
         2         2         1         1        10        10     -0.00091100
         2         2         1         1        10        11     -0.00000000
         2         2         1         1        10        12     -0.00000000
         2         2         1         1        10        13     -0.00000000
         2         2         1         1        10        14     -0.00000000
         2         2         1         1        10        15      0.00000000
         2         2         1         1        11         1     -0.00000000
         2         2         1         1        11         2     -0.00000000
         2         2         1         1        11         3     -0.00000000
         2         2         1         1        11         4      0.00007704
         2         2         1         1        11         5      0.00000000
         2         2         1         1        11         6      0.00000000
         2         2         1         1        11         7      0.00000000
         2         2         1         1        11         8     -0.00036711
         2         2         1         1        11         9      0.00000000
         2         2         1         1        11        10     -0.00000000
         2         2         1         1        11        11     -0.00065609
         2         2         1         1        11        12      0.00000000
         2         2         1         1        11        13     -0.00000000
         2         2         1         1        11        14      0.00000000
         2         2         1         1        11        15      0.00000000
         2         2         1         1        12         1     -0.00023297
         2         2         1         1        12         2     -0.00000000
         2         2         1         1        12         3     -0.00000000
         2         2         1         1        12         4      0.00000000
         2         2         1         1        12         5      0.00000000
         2         2         1         1        12         6      0.00000000
         2         2         1         1        12         7      0.00034370
         2         2         1         1        12         8     -0.00000000
         2         2         1         1        12         9     -0.00000000
         2         2         1         1        12        10     -0.00000000
         2         2         1         1        12        11      0.00000000
         2         2         1         1        12        12     -0.00084824
         2         2         1         1        12        13      0.00000000
         2         2         1         1        12        14      0.00000000
         2         2         1         1        12        15     -0.00086228
         2         2         1         1        13         1      0.00000000
         2         2         1         1        13         2      0.00000000
         2         2         1         1        13         3      0.00000000
         2         2         1         1        13         4      0.00000000
         2         2         1         1        13         5      0.00000515
         2         2         1         1        13         6     -0.00014889
         2         2         1         1        13         7     -0.00000000
         2         2         1         1        13         8     -0.00000000
         2         2         1         1        13         9      0.00000000
         2         2         1         1        13        10     -0.00000000
         2         2         1         1        13        11     -0.00000000
         2         2         1         1        13        12      0.00000000
         2         2         1         1        13        13     -0.00138491
         2         2         1         1        13        14      0.00000000
         2         2         1         1        13        15     -0.00000000
         2         2         1         1        14         1      0.00000000
         2         2         1         1        14         2      0.00000000
         2         2         1         1        14         3     -0.00000000
         2         2         1         1        14         4      0.00000000
         2         2         1         1        14         5     -0.00014889
         2         2         1         1        14         6     -0.00000515
         2         2         1         1        14         7     -0.00000000
         2         2         1         1        14         8      0.00000000
         2         2         1         1        14         9     -0.00000000
         2         2         1         1        14        10     -0.00000000
         2         2         1         1        14        11      0.00000000
         2         2         1         1        14        12      0.00000000
         2         2         1         1        14        13     -0.00000000
         2         2         1         1        14        14     -0.00138491
         2         2         1         1        14        15      0.00000000
         2         2         1         1        15         1     -0.00002860
         2         2         1         1        15         2      0.00000000
         2         2         1         1        15         3      0.00000000
         2         2         1         1        15         4     -0.00000000
         2         2         1         1        15         5     -0.00000000
         2         2         1         1        15         6     -0.00000000
         2         2         1         1        15         7      0.00005589
         2         2         1         1        15         8      0.00000000
         2         2         1         1        15         9      0.00000000
         2         2         1         1        15        10      0.00000000
         2         2         1         1        15        11      0.00000000
         2         2         1         1        15        12     -0.00086228
         2         2         1         1        15        13     -0.00000000
         2         2         1         1        15        14      0.00000000
         2         2         1         1        15        15     -0.00136955
         3         1         1         1         1         1      0.00026523
         3         1         1         1         1         2     -0.00000000
         3         1         1         1         1         3     -0.00000000
         3         1         1         1         1         4     -0.00000000
         3         1         1         1         1         5      0.00000000
         3         1         1         1         1         6      0.00000000
         3         1         1         1         1         7     -0.00029274
         3         1         1         1         1         8      0.00000000
         3         1         1         1         1         9      0.00000000
         3         1         1         1         1        10     -0.00000000
         3         1         1         1         1        11      0.00000000
         3         1         1         1         1        12     -0.00055425
         3         1         1         1         1        13     -0.00000000
         3         1         1         1         1        14      0.00000000
         3         1         1         1         1        15     -0.00088575
         3         1         1         1         2         1      0.00000000
         3         1         1         1         2         2     -0.00061734
         3         1         1         1         2         3      0.00000000
         3         1         1         1         2         4      0.00000000
         3         1         1         1         2         5     -0.00000000
         3         1         1         1         2         6     -0.00000000
         3         1         1         1         2         7      0.00000000
         3         1         1         1         2         8      0.00000000
         3         1         1         1         2         9     -0.00075407
         3         1         1         1         2        10     -0.00130222
         3         1         1         1         2        11      0.00000000
         3         1         1         1         2        12     -0.00000000
         3         1         1         1         2        13     -0.00000000
         3         1         1         1         2        14     -0.00000000
         3         1         1         1         2        15     -0.00000000
         3         1         1         1         3         1     -0.00000000
         3         1         1         1         3         2      0.00000000
         3         1         1         1         3         3     -0.00061734
         3         1         1         1         3         4      0.00000000
         3         1         1         1         3         5      0.00000000
         3         1         1         1         3         6     -0.00000000
         3         1         1         1         3         7     -0.00000000
         3         1         1         1         3         8     -0.00000000
         3         1         1         1         3         9      0.00130222
         3         1         1         1         3        10     -0.00075407
         3         1         1         1         3        11      0.00000000
         3         1         1         1         3        12     -0.00000000
         3         1         1         1         3        13     -0.00000000
         3         1         1         1         3        14      0.00000000
         3         1         1         1         3        15     -0.00000000
         3         1         1         1         4         1     -0.00000000
         3         1         1         1         4         2     -0.00000000
         3         1         1         1         4         3      0.00000000
         3         1         1         1         4         4     -0.00068684
         3         1         1         1         4         5     -0.00000000
         3         1         1         1         4         6     -0.00000000
         3         1         1         1         4         7      0.00000000
         3         1         1         1         4         8      0.00142561
         3         1         1         1         4         9      0.00000000
         3         1         1         1         4        10      0.00000000
         3         1         1         1         4        11      0.00105789
         3         1         1         1         4        12     -0.00000000
         3         1         1         1         4        13      0.00000000
         3         1         1         1         4        14      0.00000000
         3         1         1         1         4        15     -0.00000000
         3         1         1         1         5         1     -0.00000000
         3         1         1         1         5         2     -0.00000000
         3         1         1         1         5         3      0.00000000
         3         1         1         1         5         4      0.00000000
         3         1         1         1         5         5     -0.00016168
         3         1         1         1         5         6     -0.00000000
         3         1         1         1         5         7      0.00000000
         3         1         1         1         5         8     -0.00000000
         3         1         1         1         5         9     -0.00000000
         3         1         1         1         5        10     -0.00000000
         3         1         1         1         5        11     -0.00000000
         3         1         1         1         5        12     -0.00000000
         3         1         1         1         5        13      0.00003206
         3         1         1         1         5        14     -0.00092647
         3         1         1         1         5        15      0.00000000
         3         1         1         1         6         1      0.00000000
         3         1         1         1         6         2     -0.00000000
         3         1         1         1         6         3     -0.00000000
         3         1         1         1         6         4      0.00000000
         3         1         1         1         6         5      0.00000000
         3         1         1         1         6         6     -0.00016168
         3         1         1         1         6         7     -0.00000000
         3         1         1         1         6         8     -0.00000000
         3         1         1         1         6         9      0.00000000
         3         1         1         1         6        10     -0.00000000
         3         1         1         1         6        11     -0.00000000
         3         1         1         1         6        12      0.00000000
         3         1         1         1         6        13     -0.00092647
         3         1         1         1         6        14     -0.00003206
         3         1         1         1         6        15      0.00000000
         3         1         1         1         7         1     -0.00046504
         3         1         1         1         7         2      0.00000000
         3         1         1         1         7         3      0.00000000
         3         1         1         1         7         4      0.00000000
         3         1         1         1         7         5     -0.00000000
         3         1         1         1         7         6     -0.00000000
         3         1         1         1         7         7      0.00052651
         3         1         1         1         7         8     -0.00000000
         3         1         1         1         7         9     -0.00000000
         3         1         1         1         7        10      0.00000000
         3         1         1         1         7        11     -0.00000000
         3         1         1         1         7        12      0.00017042
         3         1         1         1         7        13      0.00000000
         3         1         1         1         7        14     -0.00000000
         3         1         1         1         7        15      0.00054489
         3         1         1         1         8         1     -0.00000000
         3         1         1         1         8         2      0.00000000
         3         1         1         1         8         3     -0.00000000
         3         1         1         1         8         4      0.00081037
         3         1         1         1         8         5      0.00000000
         3         1         1         1         8         6      0.00000000
         3         1         1         1         8         7      0.00000000
         3         1         1         1         8         8     -0.00175297
         3         1         1         1         8         9     -0.00000000
         3         1         1         1         8        10     -0.00000000
         3         1         1         1         8        11     -0.00135018
         3         1         1         1         8        12      0.00000000
         3         1         1         1         8        13     -0.00000000
         3         1         1         1         8        14      0.00000000
         3         1         1         1         8        15      0.00000000
         3         1         1         1         9         1      0.00000000
[...]
         3         3         1         1         1         2      0.00000000
         3         3         1         1         1         3      0.00000000
         3         3         1         1         1         4     -0.00000000
         3         3         1         1         1         5     -0.00000000
         3         3         1         1         1         6     -0.00000000
         3         3         1         1         1         7      0.06191516
         3         3         1         1         1         8     -0.00000000
         3         3         1         1         1         9     -0.00000000
         3         3         1         1         1        10      0.00000000
         3         3         1         1         1        11      0.00000000
         3         3         1         1         1        12     -0.00402150
         3         3         1         1         1        13     -0.00000000
         3         3         1         1         1        14      0.00000000
         3         3         1         1         1        15      0.02555800
         3         3         1         1         2         1      0.00000000
         3         3         1         1         2         2     -0.14236143
         3         3         1         1         2         3      0.00000000
         3         3         1         1         2         4      0.00000000
         3         3         1         1         2         5     -0.00000000
         3         3         1         1         2         6     -0.00000000
         3         3         1         1         2         7      0.00000000
         3         3         1         1         2         8      0.00000000
         3         3         1         1         2         9     -0.03462961
         3         3         1         1         2        10     -0.05980257
         3         3         1         1         2        11      0.00000000
         3         3         1         1         2        12     -0.00000000
         3         3         1         1         2        13     -0.00000000
         3         3         1         1         2        14     -0.00000000
         3         3         1         1         2        15     -0.00000000
         3         3         1         1         3         1      0.00000000
         3         3         1         1         3         2      0.00000000
         3         3         1         1         3         3     -0.14236143
         3         3         1         1         3         4      0.00000000
         3         3         1         1         3         5      0.00000000
         3         3         1         1         3         6     -0.00000000
         3         3         1         1         3         7     -0.00000000
         3         3         1         1         3         8      0.00000000
         3         3         1         1         3         9      0.05980257
         3         3         1         1         3        10     -0.03462961
         3         3         1         1         3        11      0.00000000
         3         3         1         1         3        12     -0.00000000
         3         3         1         1         3        13     -0.00000000
         3         3         1         1         3        14      0.00000000
         3         3         1         1         3        15     -0.00000000
         3         3         1         1         4         1     -0.00000000
         3         3         1         1         4         2      0.00000000
         3         3         1         1         4         3      0.00000000
         3         3         1         1         4         4     -0.07013715
         3         3         1         1         4         5     -0.00000000
         3         3         1         1         4         6     -0.00000000
         3         3         1         1         4         7      0.00000000
         3         3         1         1         4         8      0.05642414
         3         3         1         1         4         9     -0.00000000
         3         3         1         1         4        10      0.00000000
         3         3         1         1         4        11      0.00134353
         3         3         1         1         4        12      0.00000000
         3         3         1         1         4        13     -0.00000000
         3         3         1         1         4        14     -0.00000000
         3         3         1         1         4        15      0.00000000
         3         3         1         1         5         1     -0.00000000
         3         3         1         1         5         2     -0.00000000
         3         3         1         1         5         3      0.00000000
         3         3         1         1         5         4     -0.00000000
         3         3         1         1         5         5      0.00077906
         3         3         1         1         5         6      0.00000000
         3         3         1         1         5         7      0.00000000
         3         3         1         1         5         8      0.00000000
         3         3         1         1         5         9      0.00000000
         3         3         1         1         5        10      0.00000000
         3         3         1         1         5        11     -0.00000000
         3         3         1         1         5        12     -0.00000000
         3         3         1         1         5        13      0.00003370
         3         3         1         1         5        14     -0.00097394
         3         3         1         1         5        15      0.00000000
         3         3         1         1         6         1     -0.00000000
         3         3         1         1         6         2     -0.00000000
         3         3         1         1         6         3     -0.00000000
         3         3         1         1         6         4     -0.00000000
         3         3         1         1         6         5      0.00000000
         3         3         1         1         6         6      0.00077906
         3         3         1         1         6         7      0.00000000
         3         3         1         1         6         8     -0.00000000
         3         3         1         1         6         9     -0.00000000
         3         3         1         1         6        10      0.00000000
         3         3         1         1         6        11     -0.00000000
         3         3         1         1         6        12     -0.00000000
         3         3         1         1         6        13     -0.00097394
         3         3         1         1         6        14     -0.00003370
         3         3         1         1         6        15      0.00000000
         3         3         1         1         7         1      0.06191516
         3         3         1         1         7         2      0.00000000
         3         3         1         1         7         3     -0.00000000
         3         3         1         1         7         4      0.00000000
         3         3         1         1         7         5      0.00000000
         3         3         1         1         7         6      0.00000000
         3         3         1         1         7         7     -0.03949999
         3         3         1         1         7         8      0.00000000
         3         3         1         1         7         9      0.00000000
         3         3         1         1         7        10      0.00000000
         3         3         1         1         7        11     -0.00000000
         3         3         1         1         7        12      0.00232263
         3         3         1         1         7        13      0.00000000
         3         3         1         1         7        14      0.00000000
         3         3         1         1         7        15     -0.01830236
         3         3         1         1         8         1     -0.00000000
         3         3         1         1         8         2      0.00000000
         3         3         1         1         8         3      0.00000000
         3         3         1         1         8         4      0.05642414
         3         3         1         1         8         5      0.00000000
         3         3         1         1         8         6     -0.00000000
         3         3         1         1         8         7      0.00000000
         3         3         1         1         8         8     -0.05418526
         3         3         1         1         8         9     -0.00000000
         3         3         1         1         8        10      0.00000000
         3         3         1         1         8        11      0.00325613
         3         3         1         1         8        12     -0.00000000
         3         3         1         1         8        13      0.00000000
         3         3         1         1         8        14      0.00000000
         3         3         1         1         8        15      0.00000000
         3         3         1         1         9         1     -0.00000000
         3         3         1         1         9         2     -0.03462961
         3         3         1         1         9         3      0.05980257
         3         3         1         1         9         4     -0.00000000
         3         3         1         1         9         5      0.00000000
         3         3         1         1         9         6     -0.00000000
         3         3         1         1         9         7      0.00000000
         3         3         1         1         9         8     -0.00000000
         3         3         1         1         9         9     -0.03663281
         3         3         1         1         9        10     -0.00000000
         3         3         1         1         9        11      0.00000000
         3         3         1         1         9        12      0.00000000
         3         3         1         1         9        13     -0.00000000
         3         3         1         1         9        14      0.00000000
         3         3         1         1         9        15      0.00000000
         3         3         1         1        10         1      0.00000000
         3         3         1         1        10         2     -0.05980257
         3         3         1         1        10         3     -0.03462961
         3         3         1         1        10         4      0.00000000
         3         3         1         1        10         5      0.00000000
         3         3         1         1        10         6      0.00000000
         3         3         1         1        10         7      0.00000000
         3         3         1         1        10         8      0.00000000
         3         3         1         1        10         9     -0.00000000
         3         3         1         1        10        10     -0.03663281
         3         3         1         1        10        11      0.00000000
         3         3         1         1        10        12     -0.00000000
         3         3         1         1        10        13      0.00000000
         3         3         1         1        10        14      0.00000000
         3         3         1         1        10        15     -0.00000000
         3         3         1         1        11         1      0.00000000
         3         3         1         1        11         2      0.00000000
         3         3         1         1        11         3      0.00000000
         3         3         1         1        11         4      0.00134353
         3         3         1         1        11         5     -0.00000000
         3         3         1         1        11         6     -0.00000000
         3         3         1         1        11         7     -0.00000000
         3         3         1         1        11         8      0.00325613
         3         3         1         1        11         9      0.00000000
         3         3         1         1        11        10      0.00000000
         3         3         1         1        11        11     -0.00402067
         3         3         1         1        11        12     -0.00000000
         3         3         1         1        11        13     -0.00000000
         3         3         1         1        11        14     -0.00000000
         3         3         1         1        11        15     -0.00000000
         3         3         1         1        12         1     -0.00402150
         3         3         1         1        12         2     -0.00000000
         3         3         1         1        12         3     -0.00000000
         3         3         1         1        12         4      0.00000000
         3         3         1         1        12         5     -0.00000000
         3         3         1         1        12         6     -0.00000000
         3         3         1         1        12         7      0.00232263
         3         3         1         1        12         8     -0.00000000
         3         3         1         1        12         9      0.00000000
         3         3         1         1        12        10     -0.00000000
         3         3         1         1        12        11     -0.00000000
         3         3         1         1        12        12      0.00006878
         3         3         1         1        12        13     -0.00000000
         3         3         1         1        12        14     -0.00000000
         3         3         1         1        12        15      0.00114284
         3         3         1         1        13         1     -0.00000000
         3         3         1         1        13         2     -0.00000000
         3         3         1         1        13         3     -0.00000000
         3         3         1         1        13         4     -0.00000000
         3         3         1         1        13         5      0.00003370
         3         3         1         1        13         6     -0.00097394
         3         3         1         1        13         7      0.00000000
         3         3         1         1        13         8      0.00000000
         3         3         1         1        13         9     -0.00000000
         3         3         1         1        13        10      0.00000000
         3         3         1         1        13        11     -0.00000000
         3         3         1         1        13        12     -0.00000000
         3         3         1         1        13        13     -0.00304411
         3         3         1         1        13        14      0.00000000
         3         3         1         1        13        15      0.00000000
         3         3         1         1        14         1      0.00000000
         3         3         1         1        14         2     -0.00000000
         3         3         1         1        14         3      0.00000000
         3         3         1         1        14         4     -0.00000000
         3         3         1         1        14         5     -0.00097394
         3         3         1         1        14         6     -0.00003370
         3         3         1         1        14         7      0.00000000
         3         3         1         1        14         8      0.00000000
         3         3         1         1        14         9      0.00000000
         3         3         1         1        14        10      0.00000000
         3         3         1         1        14        11     -0.00000000
         3         3         1         1        14        12     -0.00000000
         3         3         1         1        14        13      0.00000000
         3         3         1         1        14        14     -0.00304411
         3         3         1         1        14        15      0.00000000
         3         3         1         1        15         1      0.02555800
         3         3         1         1        15         2     -0.00000000
         3         3         1         1        15         3     -0.00000000
         3         3         1         1        15         4      0.00000000
         3         3         1         1        15         5      0.00000000
         3         3         1         1        15         6      0.00000000
         3         3         1         1        15         7     -0.01830236
         3         3         1         1        15         8      0.00000000
         3         3         1         1        15         9      0.00000000
         3         3         1         1        15        10     -0.00000000
         3         3         1         1        15        11     -0.00000000
         3         3         1         1        15        12      0.00114284
         3         3         1         1        15        13      0.00000000
         3         3         1         1        15        14      0.00000000
         3         3         1         1        15        15     -0.01159314


 RESULTS
 =======

  Reference energy                    -14.865446739065

  Correlated core orbitals:             1.1       2.1
  Orbital energies:                    -2.4408   -2.4405

  CISD core-core energy                -0.000276958798
  CISD core-valence energy             -0.000454796918
  CISD valence correlation energy      -0.027106448553

  CISD singlet pair energy             -0.027702417490
  CISD triplet pair energy             -0.000101476113
  CISD correlation energy              -0.027838204269

 !CISD total energy                   -14.893284943334

 Timing summary (sec):

 STEP                 CPU(USER)    SYS     CPU(TOT)    WALL
 CCSD iterations         0.12      0.02      0.14      0.13

 Program statistics:

 Available memory in ccsd:                39999164
 Min. memory needed in ccsd:                  8005
 Max. memory used in ccsd:                    8374
 Max. memory used in cckext:                 38960 (30 integral passes)



 **********************************************************************************************************************************
 DATASETS  * FILE   NREC   LENGTH (MB)   RECORD NAMES
              1      20       30.02       500      700      610      900      950      970     1000      129      960     1100   
                                          VAR     GEOM    BASINP   SYMINP    ZMAT    AOBASIS   BASIS     P2S    ABASIS      S 
                                         1400     1410     1200     1210     1080     1600     1650     1300     1700     1380   
                                           T        V       H0       H01     AOSYM     SMH    MOLCAS    ERIS     OPER     JKOP   

              3       5       14.77       500      610      700     1000     2100   
                                          VAR    BASINP    GEOM     BASIS     RHF  

 PROGRAMS   *        TOTAL      CISD       INT   RESTART
 CPU TIMES  *         0.39      0.19      0.11      0.01
 REAL TIME  *         0.56 SEC
 DISK USED  *        49.44 MB
 **********************************************************************************************************************************
 Molecular orbitals read from record     2100.3  Type=RHF/CANONICAL (state 1.1)
 Occupation numbers read from record     2100.3  Type=RHF/RHF (state 1.1)
 Orbital energies read from record       2100.3  Type=RHF/CANONICAL (state 1.1)
 Redundancy group numbers read from rec  2100.3  Type=RHF/RHF (state 1.1)

 CISD/6-31G energy=    -14.893284943334

            CISD
    -14.89328494
 **********************************************************************************************************************************
 Molpro calculation terminated
