
 Primary working directories    : /scr/yuriaoto/job.023201/molpro.D6sQgyVjjc
 Secondary working directories  : /scr/yuriaoto/job.023201/molpro.D6sQgyVjjc
 Wavefunction directory         : /scr/yuriaoto/job.023201/
 Main file repository           : /scr/yuriaoto/job.023201/molpro.D6sQgyVjjc/

 id        : yuriaoto

 Nodes             nprocs
 t-rex.ufabc.int.br    1

 Using customized tuning parameters: mindgm=8; mindgv=16; mindgc=1; mindgr=1; noblas=0; minvec=7
 default implementation of scratch files=df  


 Variables initialized (933), CPU time= 0.00 sec
 ***,
 memory,40,m
 gprint,orbital,basis,civector
 gthresh,thrprint=0,printci=0.0
 file,3,wfu.dat,old
 
 {fci
 wf,6,1,0;
 core,0
 }
 Commands  initialized (760), CPU time= 0.01 sec, 617 directives.
 Default parameters read. Elapsed time= 0.08 sec

 Checking input...
 Passed
1


                                         ***  PROGRAM SYSTEM MOLPRO  ***
                                       Copyright, TTI GmbH Stuttgart, 2015
                                    Version 2019.2 linked Abr  7 2019 15:10:35


 **********************************************************************************************************************************
 LABEL *                                                                                 
  64 bit serial version                                                                  DATE: 17-May-20          TIME: 23:35:09  
 **********************************************************************************************************************************

 SHA1:             3a8a58c585c929645742fb5a1b7541a4ad1da699
 **********************************************************************************************************************************


 THRESHOLDS:

 ZERO    =  1.00D-12  ONEINT  =  1.00D-12  TWOINT  =  1.00D-11  PREFAC  =  1.00D-14  XXXXXX  =  1.00D-09  EORDER  =  1.00D-04
 ENERGY  =  0.00D+00  ETEST   =  0.00D+00  EDENS   =  0.00D+00  THRDEDEF=  1.00D-06  GRADIENT=  1.00D-02  STEP    =  1.00D-03
 ORBITAL =  1.00D-05  CIVEC   =  1.00D-05  COEFF   =  1.00D-04  PRINTCI =  0.00D+00  PUNCHCI =  9.90D+01  OPTGRAD =  3.00D-04
 OPTENERG=  1.00D-06  OPTSTEP =  3.00D-04  THRGRAD =  1.00D-10  COMPRESS=  1.00D-11  VARMIN  =  1.00D-07  VARMAX  =  1.00D-03
 THRDOUB =  0.00D+00  THRDIV  =  1.00D-05  THRRED  =  1.00D-07  THRPSP  =  1.00D+00  THRDC   =  1.00D-10  THRCS   =  1.00D-10
 THRNRM  =  1.00D-08  THREQ   =  0.00D+00  THRDE   =  1.00D+00  THRREF  =  1.00D-05  SPARFAC =  1.00D+00  THRDLP  =  1.00D-07
 THRDIA  =  1.00D-10  THRDLS  =  1.00D-07  THRGPS  =  0.00D+00  THRKEX  =  0.00D+00  THRDIS  =  2.00D-01  THRVAR  =  1.00D-10
 THRLOC  =  1.00D-06  THRGAP  =  1.00D-06  THRLOCT = -1.00D+00  THRGAPT = -1.00D+00  THRORB  =  1.00D-06  THRMLTP =  0.00D+00
 THRCPQCI=  1.00D-10  KEXTA   =  0.00D+00  THRCOARS=  0.00D+00  SYMTOL  =  1.00D-06  GRADTOL =  1.00D-06  THROVL  =  1.00D-08
 THRORTH =  1.00D-08  GRID    =  1.00D-06  GRIDMAX =  1.00D-03  DTMAX   =  0.00D+00  THROCCDE=  1.00D-01  THROCCDE=  1.00D-01
 THRPRINT=  0.00D+00


 Variable memory set to   40000000 words,  buffer space 



 Permanent file  3  wfu.dat  assigned.  Implementation=df    Size= 14.08 MB


 PROGRAM * RESTART 


 Reading variables from file 3

 _FNUC           =      0.00000000
 _BASIS          =    STO-3G
 _NELEC          =      6.00000000
 _PROGRAM        =    RHF-SCF
 _DMX_SCF        =      0.00000000
 _DMY_SCF        =      0.00000000
 _DMZ_SCF        =      0.00000000
 _HOMO           =      2.10000000
 _EHOMO          =     -0.15007102
 _LUMO           =      2.50000000
 _ELUMO          =      0.08336193
 _ENERGY         =    -14.63864283
 _ENERGY_METHOD  =    RHF
 _ENERGY_BASIS   =    STO-3G
 _ENUC           =      1.80000000
 _EPS1(1:3)      =     -2.32975138    -0.15007102     0.15828123
 _EPS2           =      0.13305715
 _EPS3           =      0.13305715
 _EPS5(1:3)      =     -2.32973347     0.08336193     0.47434817
 _EPS6           =      0.24181392
 _EPS7           =      0.24181392
 _IPROC_MPP      =      0.00000000
 _IPROC_MPPX     =      0.00000000
 _ORBITAL        =   2100.30000000
 _STATUS         =      1.00000000
 _DATE           =    21-Oct-19
 _LASTORB        =    RHF
 _OUTPUT         =    /scr/yuriaoto/job.022395/RHF.xml
 _PGROUP         =    D2h 
 _TIME           =    09:55:26
 R               =      5.00000000

 Geometry written to block  1 of record 700


 **********************************************************************************************************************************
 DATASETS  * FILE   NREC   LENGTH (MB)   RECORD NAMES
              3       5       14.77       500      610      700     1000     2100   
                                          VAR    BASINP    GEOM     BASIS     RHF  

 PROGRAMS   *        TOTAL   RESTART
 CPU TIMES  *         0.19      0.01
 REAL TIME  *         0.22 SEC
 DISK USED  *        26.84 MB
 **********************************************************************************************************************************


 Recomputing integrals since basis changed


 Using spherical harmonics

 Library entry LI     S STO-3G               selected for orbital group  1
 Library entry LI     P STO-3G               selected for orbital group  1


 PROGRAM * SEWARD (Integral evaluation for generally contracted gaussian basis sets)     Author: Roland Lindh, 1990

 Geometry written to block  1 of record 700

 Orientation using atomic masses  
 Molecule type: Linear
 User-specified symmetry elements: X,Y,Z
 Symmetry elements: X,Y,Z
 Rotational constants:      20.8009354     20.8009354      0.0000000 GHz  (calculated with average atomic masses)

 Point group  D2h 



 ATOMIC COORDINATES

 NR  ATOM    CHARGE       X              Y              Z

   1  LI1     3.00    0.000000000    0.000000000   -2.500000000
   2  LI2     3.00    0.000000000    0.000000000    2.500000000

 Bond lengths in Bohr (Angstrom)

 1-2  5.000000000
     ( 2.645886055)


 BASIS DATA

   Nr Sym  Nuc  Type         Exponents   Contraction coefficients

    1.1 Ag    1  1s          16.119575     0.154329
              2  1s           2.936201     0.535328
                              0.794651     0.444635
    2.1 Ag    1  1s           0.636290    -0.099967
              2  1s           0.147860     0.399513
                              0.048089     0.700115
    3.1 Ag    1  2pz          0.636290     0.155916
              2 -2pz          0.147860     0.607684
                              0.048089     0.391957
    1.2 B3u   1  2px          0.636290     0.155916
              2  2px          0.147860     0.607684
                              0.048089     0.391957
    1.3 B2u   1  2py          0.636290     0.155916
              2  2py          0.147860     0.607684
                              0.048089     0.391957
    1.5 B1u   1  1s          16.119575     0.154329
              2 -1s           2.936201     0.535328
                              0.794651     0.444635
    2.5 B1u   1  1s           0.636290    -0.099967
              2 -1s           0.147860     0.399513
                              0.048089     0.700115
    3.5 B1u   1  2pz          0.636290     0.155916
              2  2pz          0.147860     0.607684
                              0.048089     0.391957
    1.6 B2g   1  2px          0.636290     0.155916
              2 -2px          0.147860     0.607684
                              0.048089     0.391957
    1.7 B3g   1  2py          0.636290     0.155916
              2 -2py          0.147860     0.607684
                              0.048089     0.391957

 NUCLEAR CHARGE:                    6
 NUMBER OF PRIMITIVE AOS:          30
 NUMBER OF SYMMETRY AOS:           30
 NUMBER OF CONTRACTIONS:           10   (    3Ag  +    1B3u +    1B2u +    0B1g +    3B1u +    1B2g +    1B3g +    0Au  )
 NUMBER OF CORE ORBITALS:           2   (    1Ag  +    0B3u +    0B2u +    0B1g +    1B1u +    0B2g +    0B3g +    0Au  )
 NUMBER OF VALENCE ORBITALS:        8   (    2Ag  +    1B3u +    1B2u +    0B1g +    2B1u +    1B2g +    1B3g +    0Au  )


 NUCLEAR REPULSION ENERGY    1.80000000

 Eigenvalues of metric

         1 0.805E+00 0.104E+01 0.192E+01
         2 0.129E+01
         3 0.129E+01
         5 0.155E+00 0.846E+00 0.123E+01
         6 0.713E+00
         7 0.713E+00


 Contracted 2-electron integrals neglected if value below      1.0D-11
 AO integral compression algorithm  1   Integral accuracy      1.0D-11

     0.262 MB (compressed) written to integral file (100.0%)


 NUMBER OF SORTED TWO-ELECTRON INTEGRALS:        373.     BUFFER LENGTH:  32768
 NUMBER OF SEGMENTS:   1  SEGMENT LENGTH:        373      RECORD LENGTH: 524288

 Memory used in sort:       0.56 MW

 SORT1 READ         776. AND WROTE         373. INTEGRALS IN      1 RECORDS. CPU TIME:     0.00 SEC, REAL TIME:     0.00 SEC
 SORT2 READ         373. AND WROTE         373. INTEGRALS IN      1 RECORDS. CPU TIME:     0.00 SEC, REAL TIME:     0.01 SEC

 FILE SIZES:   FILE 1:    30.2 MBYTE,  FILE 4:     4.2 MBYTE,   TOTAL:     34.4 MBYTE

 OPERATOR DM      FOR CENTER  0  COORDINATES:    0.000000    0.000000    0.000000


 **********************************************************************************************************************************
 DATASETS  * FILE   NREC   LENGTH (MB)   RECORD NAMES
              1      19       29.94       500      700      610      900      950      970     1000      129      960     1100   
                                          VAR     GEOM    BASINP   SYMINP    ZMAT    AOBASIS   BASIS     P2S    ABASIS      S 
                                         1400     1410     1200     1210     1080     1600     1650     1300     1700   
                                           T        V       H0       H01     AOSYM     SMH    MOLCAS    ERIS     OPER   

              3       5       14.77       500      610      700     1000     2100   
                                          VAR    BASINP    GEOM     BASIS     RHF  

 PROGRAMS   *        TOTAL       INT   RESTART
 CPU TIMES  *         0.34      0.16      0.01
 REAL TIME  *         0.52 SEC
 DISK USED  *        49.42 MB
 **********************************************************************************************************************************


 PROGRAM * FCI (Full CI)     Author: P.J. Knowles, 1984


 Molecular orbitals read from record     2100.3  Type=RHF/CANONICAL (state 1.1)

 Frozen orbitals:              0 (  0  0  0  0  0  0  0  0)
 Active orbitals:             10 (  3  1  1  0  3  1  1  0)
 Active electrons:             6
 Spin quantum number:          0.0
 Orbital pairs:                    16       6       6       2      11       6       6       2
 Strings:                          16      16      16      12      16      16      16      12
                                   16      16      16      12      16      16      16      12
 Determinants:                           1824            1792            1792            1792
                                         1824            1792            1792            1792

 Load integrals                1.2 sec
 Transform integrals           1.2 sec
 Storage for integrals:            739
 Remaining memory:            39998161

 Core energy:               1.80000000
 Run Hamiltonian processor DAVIDSON
 Symmetry:                   1
 Trial vector:                  0.00
 Result vector:                 0.00
 Maximum iterations:           90
 Convergence threshold:         0.0000100
 RHS vector:                    0.00
 Hamiltonian shift:             0.0000000
 Output threshold:              0.0000000
 Options:                        0
 Number of roots:             1

 Hamiltonian diagonaliser entered at time      1.16

 Initial configuration generated:
     913      1.0000000    -14.6386428

 It  Tr    CPU  Convergence   Energy       Pop     dE(next)

  1   1    1.2  1.00000000   -14.63864283
                                           0.01 -0.04156957 -0.04113391
  2   1    1.2  0.26678071   -14.66495062
                                           0.04 -0.00256793 -0.00247534
  3   1    1.2  0.08236201   -14.66703095
                                           0.09 -0.00037459 -0.00035788
  4   1    1.2  0.02784016   -14.66734722
                                           0.13 -0.00002602 -0.00002457
  5   1    1.2  0.00387302   -14.66736967
                                           0.16 -0.00000232 -0.00000218
  6   1    1.2  0.00140010   -14.66737177
                                           0.23 -0.00000024 -0.00000021
  7   1    1.2  0.00055296   -14.66737200
                                           0.25 -0.00000004 -0.00000003
  8   1    1.2  0.00013855   -14.66737203
                                           0.27 -0.00000001 -0.00000000
  9   1    1.2  0.00004355   -14.66737204
                                           0.29 -0.00000000 -0.00000000
 10   1    1.2  0.00001358   -14.66737204
                                           0.27 -0.00000000 -0.00000000
 11   1    1.2  0.00000598   -14.66737204


RESULTS FOR STATE  1.1
=====================

 Correlation energy                    -0.028729205315
 !FCI STATE  1.1 Energy               -14.667372039476
 CI Vector (threshold=  0.00    )
      -0.000708033131  1  2  3  1  2  3
      -0.001033503050  1  2  3  1  6  7
       0.001784200072  1  2  3  1  6  8
      -0.000021749382  1  2  3  1  7  8
       0.000713081293  1  2  3  2  6  7
      -0.000925436373  1  2  3  2  6  8
       0.000002598463  1  2  3  2  7  8
      -0.000221885660  1  2  3  3  6  7
      -0.000129157589  1  2  3  3  6  8
       0.000001981005  1  2  3  3  7  8
       0.000000727063  1  2  3  4  6  9
       0.000000391783  1  2  3  4  7  9
      -0.000000468255  1  2  3  4  8  9
       0.000000727063  1  2  3  5  6 10
       0.000000391783  1  2  3  5  7 10
      -0.000000468255  1  2  3  5  8 10
      -0.001033503050  1  6  7  1  2  3
      -0.142446682033  1  6  7  1  6  7
      -0.049679606587  1  6  7  1  6  8
       0.001258636182  1  6  7  1  7  8
      -0.001266114424  1  6  7  2  6  7
      -0.002604469273  1  6  7  2  6  8
       0.000002327737  1  6  7  2  7  8
      -0.000897973281  1  6  7  3  6  7
      -0.000612334151  1  6  7  3  6  8
      -0.000017952117  1  6  7  3  7  8
      -0.000275141641  1  6  7  4  6  9
      -0.000011711358  1  6  7  4  7  9
      -0.000008754413  1  6  7  4  8  9
      -0.000275141641  1  6  7  5  6 10
      -0.000011711358  1  6  7  5  7 10
      -0.000008754413  1  6  7  5  8 10
       0.001784200072  1  6  8  1  2  3
      -0.049679606587  1  6  8  1  6  7
      -0.023621193978  1  6  8  1  6  8
      -0.000281550196  1  6  8  1  7  8
      -0.002186395337  1  6  8  2  6  7
       0.001131961306  1  6  8  2  6  8
       0.000001411089  1  6  8  2  7  8
       0.000421389711  1  6  8  3  6  7
       0.000224689232  1  6  8  3  6  8
      -0.000016126665  1  6  8  3  7  8
      -0.000240662307  1  6  8  4  6  9
      -0.000006353936  1  6  8  4  7  9
      -0.000002099824  1  6  8  4  8  9
      -0.000240662307  1  6  8  5  6 10
      -0.000006353936  1  6  8  5  7 10
      -0.000002099824  1  6  8  5  8 10
      -0.000021749382  1  7  8  1  2  3
       0.001258636182  1  7  8  1  6  7
      -0.000281550196  1  7  8  1  6  8
       0.000374354041  1  7  8  1  7  8
      -0.000186505181  1  7  8  2  6  7
      -0.000118556997  1  7  8  2  6  8
      -0.000000894445  1  7  8  2  7  8
      -0.000208053362  1  7  8  3  6  7
      -0.000103207267  1  7  8  3  6  8
       0.000002998830  1  7  8  3  7  8
       0.000002880204  1  7  8  4  6  9
       0.000000118253  1  7  8  4  7  9
      -0.000000752864  1  7  8  4  8  9
       0.000002880204  1  7  8  5  6 10
       0.000000118253  1  7  8  5  7 10
      -0.000000752864  1  7  8  5  8 10
       0.000713081293  2  6  7  1  2  3
      -0.001266114424  2  6  7  1  6  7
      -0.002186395337  2  6  7  1  6  8
      -0.000186505181  2  6  7  1  7  8
      -0.001889364370  2  6  7  2  6  7
      -0.000911958690  2  6  7  2  6  8
       0.000004239748  2  6  7  2  7  8
       0.000046755145  2  6  7  3  6  7
       0.000053266342  2  6  7  3  6  8
      -0.000004066784  2  6  7  3  7  8
       0.000018767995  2  6  7  4  6  9
      -0.000000182172  2  6  7  4  7  9
       0.000000312659  2  6  7  4  8  9
       0.000018767995  2  6  7  5  6 10
      -0.000000182172  2  6  7  5  7 10
       0.000000312659  2  6  7  5  8 10
      -0.000925436373  2  6  8  1  2  3
      -0.002604469273  2  6  8  1  6  7
       0.001131961306  2  6  8  1  6  8
      -0.000118556997  2  6  8  1  7  8
      -0.000911958690  2  6  8  2  6  7
      -0.002529451481  2  6  8  2  6  8
      -0.000011040060  2  6  8  2  7  8
       0.000088974241  2  6  8  3  6  7
       0.000181248266  2  6  8  3  6  8
      -0.000001288141  2  6  8  3  7  8
       0.000016605178  2  6  8  4  6  9
       0.000000166049  2  6  8  4  7  9
      -0.000000930297  2  6  8  4  8  9
       0.000016605178  2  6  8  5  6 10
       0.000000166049  2  6  8  5  7 10
      -0.000000930297  2  6  8  5  8 10
       0.000002598463  2  7  8  1  2  3
       0.000002327737  2  7  8  1  6  7
       0.000001411089  2  7  8  1  6  8
      -0.000000894445  2  7  8  1  7  8
       0.000004239748  2  7  8  2  6  7
      -0.000011040060  2  7  8  2  6  8
       0.000008963224  2  7  8  2  7  8
      -0.000010117902  2  7  8  3  6  7
      -0.000005779417  2  7  8  3  6  8
      -0.000000882694  2  7  8  3  7  8
       0.000000000000  2  7  8  4  6  9
       0.000000000000  2  7  8  4  7  9
       0.000000000000  2  7  8  4  8  9
       0.000000000000  2  7  8  5  6 10
       0.000000000000  2  7  8  5  7 10
       0.000000000000  2  7  8  5  8 10
      -0.000221885660  3  6  7  1  2  3
      -0.000897973281  3  6  7  1  6  7
       0.000421389711  3  6  7  1  6  8
      -0.000208053362  3  6  7  1  7  8
       0.000046755145  3  6  7  2  6  7
       0.000088974241  3  6  7  2  6  8
      -0.000010117902  3  6  7  2  7  8
       0.000397624354  3  6  7  3  6  7
       0.000203826701  3  6  7  3  6  8
      -0.000005080244  3  6  7  3  7  8
      -0.000004019685  3  6  7  4  6  9
       0.000000000000  3  6  7  4  7  9
       0.000000299384  3  6  7  4  8  9
      -0.000004019685  3  6  7  5  6 10
       0.000000000000  3  6  7  5  7 10
       0.000000299384  3  6  7  5  8 10
      -0.000129157589  3  6  8  1  2  3
      -0.000612334151  3  6  8  1  6  7
       0.000224689232  3  6  8  1  6  8
      -0.000103207267  3  6  8  1  7  8
       0.000053266342  3  6  8  2  6  7
       0.000181248266  3  6  8  2  6  8
      -0.000005779417  3  6  8  2  7  8
       0.000203826701  3  6  8  3  6  7
       0.000277857067  3  6  8  3  6  8
       0.000004166352  3  6  8  3  7  8
      -0.000003788142  3  6  8  4  6  9
      -0.000000120496  3  6  8  4  7  9
       0.000000388945  3  6  8  4  8  9
      -0.000003788142  3  6  8  5  6 10
      -0.000000120496  3  6  8  5  7 10
       0.000000388945  3  6  8  5  8 10
       0.000001981005  3  7  8  1  2  3
      -0.000017952117  3  7  8  1  6  7
      -0.000016126665  3  7  8  1  6  8
       0.000002998830  3  7  8  1  7  8
      -0.000004066784  3  7  8  2  6  7
      -0.000001288141  3  7  8  2  6  8
      -0.000000882694  3  7  8  2  7  8
      -0.000005080244  3  7  8  3  6  7
       0.000004166352  3  7  8  3  6  8
      -0.000002524611  3  7  8  3  7  8
       0.000000000000  3  7  8  4  6  9
       0.000000000000  3  7  8  4  7  9
       0.000000000000  3  7  8  4  8  9
       0.000000000000  3  7  8  5  6 10
       0.000000000000  3  7  8  5  7 10
       0.000000000000  3  7  8  5  8 10
       0.000000727063  4  6  9  1  2  3
      -0.000275141641  4  6  9  1  6  7
      -0.000240662307  4  6  9  1  6  8
       0.000002880204  4  6  9  1  7  8
       0.000018767995  4  6  9  2  6  7
       0.000016605178  4  6  9  2  6  8
       0.000000000000  4  6  9  2  7  8
      -0.000004019685  4  6  9  3  6  7
      -0.000003788142  4  6  9  3  6  8
       0.000000000000  4  6  9  3  7  8
       0.000137331323  4  6  9  4  6  9
       0.000003985244  4  6  9  4  7  9
       0.000003563979  4  6  9  4  8  9
      -0.000000283147  4  6  9  5  6 10
       0.000000000000  4  6  9  5  7 10
       0.000000000000  4  6  9  5  8 10
       0.000000391783  4  7  9  1  2  3
      -0.000011711358  4  7  9  1  6  7
      -0.000006353936  4  7  9  1  6  8
       0.000000118253  4  7  9  1  7  8
      -0.000000182172  4  7  9  2  6  7
       0.000000166049  4  7  9  2  6  8
       0.000000000000  4  7  9  2  7  8
       0.000000000000  4  7  9  3  6  7
      -0.000000120496  4  7  9  3  6  8
       0.000000000000  4  7  9  3  7  8
       0.000003985244  4  7  9  4  6  9
      -0.000001509616  4  7  9  4  7  9
      -0.000000795518  4  7  9  4  8  9
       0.000000000000  4  7  9  5  6 10
       0.000000000000  4  7  9  5  7 10
       0.000000000000  4  7  9  5  8 10
      -0.000000468255  4  8  9  1  2  3
      -0.000008754413  4  8  9  1  6  7
      -0.000002099824  4  8  9  1  6  8
      -0.000000752864  4  8  9  1  7  8
       0.000000312659  4  8  9  2  6  7
      -0.000000930297  4  8  9  2  6  8
       0.000000000000  4  8  9  2  7  8
       0.000000299384  4  8  9  3  6  7
       0.000000388945  4  8  9  3  6  8
       0.000000000000  4  8  9  3  7  8
       0.000003563979  4  8  9  4  6  9
      -0.000000795518  4  8  9  4  7  9
      -0.000001205469  4  8  9  4  8  9
       0.000000000000  4  8  9  5  6 10
       0.000000000000  4  8  9  5  7 10
       0.000000000000  4  8  9  5  8 10
       0.000000727063  5  6 10  1  2  3
      -0.000275141641  5  6 10  1  6  7
      -0.000240662307  5  6 10  1  6  8
       0.000002880204  5  6 10  1  7  8
       0.000018767995  5  6 10  2  6  7
       0.000016605178  5  6 10  2  6  8
       0.000000000000  5  6 10  2  7  8
      -0.000004019685  5  6 10  3  6  7
      -0.000003788142  5  6 10  3  6  8
       0.000000000000  5  6 10  3  7  8
      -0.000000283147  5  6 10  4  6  9
       0.000000000000  5  6 10  4  7  9
       0.000000000000  5  6 10  4  8  9
       0.000137331323  5  6 10  5  6 10
       0.000003985244  5  6 10  5  7 10
       0.000003563979  5  6 10  5  8 10
       0.000000391783  5  7 10  1  2  3
      -0.000011711358  5  7 10  1  6  7
      -0.000006353936  5  7 10  1  6  8
       0.000000118253  5  7 10  1  7  8
      -0.000000182172  5  7 10  2  6  7
       0.000000166049  5  7 10  2  6  8
       0.000000000000  5  7 10  2  7  8
       0.000000000000  5  7 10  3  6  7
      -0.000000120496  5  7 10  3  6  8
       0.000000000000  5  7 10  3  7  8
       0.000000000000  5  7 10  4  6  9
       0.000000000000  5  7 10  4  7  9
       0.000000000000  5  7 10  4  8  9
       0.000003985244  5  7 10  5  6 10
      -0.000001509616  5  7 10  5  7 10
      -0.000000795518  5  7 10  5  8 10
      -0.000000468255  5  8 10  1  2  3
      -0.000008754413  5  8 10  1  6  7
      -0.000002099824  5  8 10  1  6  8
      -0.000000752864  5  8 10  1  7  8
       0.000000312659  5  8 10  2  6  7
      -0.000000930297  5  8 10  2  6  8
       0.000000000000  5  8 10  2  7  8
       0.000000299384  5  8 10  3  6  7
       0.000000388945  5  8 10  3  6  8
       0.000000000000  5  8 10  3  7  8
       0.000000000000  5  8 10  4  6  9
       0.000000000000  5  8 10  4  7  9
       0.000000000000  5  8 10  4  8  9
       0.000003563979  5  8 10  5  6 10
      -0.000000795518  5  8 10  5  7 10
      -0.000001205469  5  8 10  5  8 10
      -0.000327309928  1  2  4  1  2  4
       0.000004199589  1  2  4  1  3  4
       0.002191290451  1  2  4  1  6  9
      -0.000020349975  1  2  4  1  7  9
      -0.000015794375  1  2  4  1  8  9
      -0.000000791107  1  2  4  2  3  4
      -0.000930667657  1  2  4  2  6  9
       0.000002138236  1  2  4  2  7  9
       0.000001783163  1  2  4  2  8  9
       0.000049621724  1  2  4  3  6  9
      -0.000000260755  1  2  4  3  7  9
       0.000001136981  1  2  4  3  8  9
      -0.000360958147  1  2  4  4  6  7
      -0.000323474387  1  2  4  4  6  8
       0.000001409314  1  2  4  4  7  8
      -0.000000457287  1  2  4  5  9 10
       0.000004199589  1  3  4  1  2  4
       0.000219250184  1  3  4  1  3  4
      -0.000151009326  1  3  4  1  6  9
       0.000003436479  1  3  4  1  7  9
      -0.000009728970  1  3  4  1  8  9
      -0.000004713488  1  3  4  2  3  4
       0.000043026433  1  3  4  2  6  9
      -0.000003219895  1  3  4  2  7  9
       0.000005956103  1  3  4  2  8  9
       0.000080009624  1  3  4  3  6  9
       0.000000000000  1  3  4  3  7  9
      -0.000000331260  1  3  4  3  8  9
       0.000122774549  1  3  4  4  6  7
      -0.000128793278  1  3  4  4  6  8
      -0.000001001264  1  3  4  4  7  8
       0.000000000000  1  3  4  5  9 10
       0.002191290451  1  6  9  1  2  4
      -0.000151009326  1  6  9  1  3  4
      -0.000960972942  1  6  9  1  6  9
      -0.000638679589  1  6  9  1  7  9
      -0.000222454871  1  6  9  1  8  9
      -0.000005829980  1  6  9  2  3  4
       0.002743330546  1  6  9  2  6  9
      -0.000005145302  1  6  9  2  7  9
       0.000007274788  1  6  9  2  8  9
       0.000014850229  1  6  9  3  6  9
      -0.000000878007  1  6  9  3  7  9
      -0.000005171107  1  6  9  3  8  9
       0.000667983737  1  6  9  4  6  7
       0.000469555662  1  6  9  4  6  8
      -0.000003739841  1  6  9  4  7  8
       0.000003326238  1  6  9  5  9 10
      -0.000020349975  1  7  9  1  2  4
       0.000003436479  1  7  9  1  3  4
      -0.000638679589  1  7  9  1  6  9
       0.000186817819  1  7  9  1  7  9
       0.000062909124  1  7  9  1  8  9
      -0.000002574551  1  7  9  2  3  4
      -0.000049283783  1  7  9  2  6  9
      -0.000003814237  1  7  9  2  7  9
       0.000000285839  1  7  9  2  8  9
      -0.000005846326  1  7  9  3  6  9
       0.000000461703  1  7  9  3  7  9
       0.000000702941  1  7  9  3  8  9
      -0.000169885216  1  7  9  4  6  7
      -0.000075646200  1  7  9  4  6  8
       0.000000968129  1  7  9  4  7  8
      -0.000000470615  1  7  9  5  9 10
      -0.000015794375  1  8  9  1  2  4
      -0.000009728970  1  8  9  1  3  4
      -0.000222454871  1  8  9  1  6  9
       0.000062909124  1  8  9  1  7  9
       0.000038421898  1  8  9  1  8  9
       0.000004381979  1  8  9  2  3  4
      -0.000034576849  1  8  9  2  6  9
       0.000000890016  1  8  9  2  7  9
      -0.000008929770  1  8  9  2  8  9
      -0.000004475651  1  8  9  3  6  9
       0.000000146440  1  8  9  3  7  9
       0.000000157739  1  8  9  3  8  9
      -0.000072258515  1  8  9  4  6  7
      -0.000043504530  1  8  9  4  6  8
       0.000001088422  1  8  9  4  7  8
      -0.000000374039  1  8  9  5  9 10
      -0.000000791107  2  3  4  1  2  4
      -0.000004713488  2  3  4  1  3  4
      -0.000005829980  2  3  4  1  6  9
      -0.000002574551  2  3  4  1  7  9
       0.000004381979  2  3  4  1  8  9
       0.000000479134  2  3  4  2  3  4
       0.000001366621  2  3  4  2  6  9
       0.000001511512  2  3  4  2  7  9
      -0.000001977156  2  3  4  2  8  9
      -0.000000684653  2  3  4  3  6  9
      -0.000000469663  2  3  4  3  7  9
      -0.000000260503  2  3  4  3  8  9
       0.000000274945  2  3  4  4  6  7
       0.000001699742  2  3  4  4  6  8
       0.000001230512  2  3  4  4  7  8
       0.000000000000  2  3  4  5  9 10
      -0.000930667657  2  6  9  1  2  4
       0.000043026433  2  6  9  1  3  4
       0.002743330546  2  6  9  1  6  9
      -0.000049283783  2  6  9  1  7  9
      -0.000034576849  2  6  9  1  8  9
       0.000001366621  2  6  9  2  3  4
      -0.001090353436  2  6  9  2  6  9
      -0.000007582853  2  6  9  2  7  9
      -0.000010521143  2  6  9  2  8  9
       0.000049377579  2  6  9  3  6  9
      -0.000000150525  2  6  9  3  7  9
       0.000001823885  2  6  9  3  8  9
       0.000052239668  2  6  9  4  6  7
       0.000041645476  2  6  9  4  6  8
       0.000000766621  2  6  9  4  7  8
      -0.000000709398  2  6  9  5  9 10
       0.000002138236  2  7  9  1  2  4
      -0.000003219895  2  7  9  1  3  4
      -0.000005145302  2  7  9  1  6  9
      -0.000003814237  2  7  9  1  7  9
       0.000000890016  2  7  9  1  8  9
       0.000001511512  2  7  9  2  3  4
      -0.000007582853  2  7  9  2  6  9
       0.000005054620  2  7  9  2  7  9
       0.000002589018  2  7  9  2  8  9
       0.000001121619  2  7  9  3  6  9
      -0.000000190957  2  7  9  3  7  9
      -0.000000175362  2  7  9  3  8  9
      -0.000005678431  2  7  9  4  6  7
      -0.000003125892  2  7  9  4  6  8
      -0.000000457174  2  7  9  4  7  8
       0.000000000000  2  7  9  5  9 10
       0.000001783163  2  8  9  1  2  4
       0.000005956103  2  8  9  1  3  4
       0.000007274788  2  8  9  1  6  9
       0.000000285839  2  8  9  1  7  9
      -0.000008929770  2  8  9  1  8  9
      -0.000001977156  2  8  9  2  3  4
      -0.000010521143  2  8  9  2  6  9
       0.000002589018  2  8  9  2  7  9
       0.000006719330  2  8  9  2  8  9
       0.000001570153  2  8  9  3  6  9
      -0.000000095077  2  8  9  3  7  9
      -0.000000337967  2  8  9  3  8  9
      -0.000004071468  2  8  9  4  6  7
      -0.000005024459  2  8  9  4  6  8
       0.000000000000  2  8  9  4  7  8
       0.000000000000  2  8  9  5  9 10
       0.000049621724  3  6  9  1  2  4
       0.000080009624  3  6  9  1  3  4
       0.000014850229  3  6  9  1  6  9
      -0.000005846326  3  6  9  1  7  9
      -0.000004475651  3  6  9  1  8  9
      -0.000000684653  3  6  9  2  3  4
       0.000049377579  3  6  9  2  6  9
       0.000001121619  3  6  9  2  7  9
       0.000001570153  3  6  9  2  8  9
       0.000082512427  3  6  9  3  6  9
       0.000002096489  3  6  9  3  7  9
       0.000001451819  3  6  9  3  8  9
       0.000007315820  3  6  9  4  6  7
      -0.000012883792  3  6  9  4  6  8
       0.000002553225  3  6  9  4  7  8
       0.000000000000  3  6  9  5  9 10
      -0.000000260755  3  7  9  1  2  4
       0.000000000000  3  7  9  1  3  4
      -0.000000878007  3  7  9  1  6  9
       0.000000461703  3  7  9  1  7  9
       0.000000146440  3  7  9  1  8  9
      -0.000000469663  3  7  9  2  3  4
      -0.000000150525  3  7  9  2  6  9
      -0.000000190957  3  7  9  2  7  9
      -0.000000095077  3  7  9  2  8  9
       0.000002096489  3  7  9  3  6  9
      -0.000000936938  3  7  9  3  7  9
      -0.000000428440  3  7  9  3  8  9
      -0.000001490886  3  7  9  4  6  7
       0.000001776725  3  7  9  4  6  8
      -0.000000477489  3  7  9  4  7  8
       0.000000000000  3  7  9  5  9 10
       0.000001136981  3  8  9  1  2  4
      -0.000000331260  3  8  9  1  3  4
      -0.000005171107  3  8  9  1  6  9
       0.000000702941  3  8  9  1  7  9
       0.000000157739  3  8  9  1  8  9
      -0.000000260503  3  8  9  2  3  4
       0.000001823885  3  8  9  2  6  9
      -0.000000175362  3  8  9  2  7  9
      -0.000000337967  3  8  9  2  8  9
       0.000001451819  3  8  9  3  6  9
      -0.000000428440  3  8  9  3  7  9
      -0.000000645141  3  8  9  3  8  9
      -0.000001223243  3  8  9  4  6  7
       0.000001569993  3  8  9  4  6  8
      -0.000000261757  3  8  9  4  7  8
       0.000000000000  3  8  9  5  9 10
      -0.000360958147  4  6  7  1  2  4
       0.000122774549  4  6  7  1  3  4
       0.000667983737  4  6  7  1  6  9
      -0.000169885216  4  6  7  1  7  9
      -0.000072258515  4  6  7  1  8  9
       0.000000274945  4  6  7  2  3  4
       0.000052239668  4  6  7  2  6  9
      -0.000005678431  4  6  7  2  7  9
      -0.000004071468  4  6  7  2  8  9
       0.000007315820  4  6  7  3  6  9
      -0.000001490886  4  6  7  3  7  9
      -0.000001223243  4  6  7  3  8  9
       0.000536479180  4  6  7  4  6  7
       0.000272927496  4  6  7  4  6  8
      -0.000003238083  4  6  7  4  7  8
       0.000000276216  4  6  7  5  9 10
      -0.000323474387  4  6  8  1  2  4
      -0.000128793278  4  6  8  1  3  4
       0.000469555662  4  6  8  1  6  9
      -0.000075646200  4  6  8  1  7  9
      -0.000043504530  4  6  8  1  8  9
       0.000001699742  4  6  8  2  3  4
       0.000041645476  4  6  8  2  6  9
      -0.000003125892  4  6  8  2  7  9
      -0.000005024459  4  6  8  2  8  9
      -0.000012883792  4  6  8  3  6  9
       0.000001776725  4  6  8  3  7  9
       0.000001569993  4  6  8  3  8  9
       0.000272927496  4  6  8  4  6  7
       0.000473453303  4  6  8  4  6  8
       0.000001814083  4  6  8  4  7  8
       0.000000241719  4  6  8  5  9 10
       0.000001409314  4  7  8  1  2  4
      -0.000001001264  4  7  8  1  3  4
      -0.000003739841  4  7  8  1  6  9
       0.000000968129  4  7  8  1  7  9
       0.000001088422  4  7  8  1  8  9
       0.000001230512  4  7  8  2  3  4
       0.000000766621  4  7  8  2  6  9
      -0.000000457174  4  7  8  2  7  9
       0.000000000000  4  7  8  2  8  9
       0.000002553225  4  7  8  3  6  9
      -0.000000477489  4  7  8  3  7  9
      -0.000000261757  4  7  8  3  8  9
      -0.000003238083  4  7  8  4  6  7
       0.000001814083  4  7  8  4  6  8
      -0.000002465888  4  7  8  4  7  8
       0.000000000000  4  7  8  5  9 10
      -0.000000457287  5  9 10  1  2  4
       0.000000000000  5  9 10  1  3  4
       0.000003326238  5  9 10  1  6  9
      -0.000000470615  5  9 10  1  7  9
      -0.000000374039  5  9 10  1  8  9
       0.000000000000  5  9 10  2  3  4
      -0.000000709398  5  9 10  2  6  9
       0.000000000000  5  9 10  2  7  9
       0.000000000000  5  9 10  2  8  9
       0.000000000000  5  9 10  3  6  9
       0.000000000000  5  9 10  3  7  9
       0.000000000000  5  9 10  3  8  9
       0.000000276216  5  9 10  4  6  7
       0.000000241719  5  9 10  4  6  8
       0.000000000000  5  9 10  4  7  8
      -0.000000357048  5  9 10  5  9 10
      -0.000327309928  1  2  5  1  2  5
       0.000004199589  1  2  5  1  3  5
       0.002191290451  1  2  5  1  6 10
      -0.000020349975  1  2  5  1  7 10
      -0.000015794375  1  2  5  1  8 10
      -0.000000791107  1  2  5  2  3  5
      -0.000930667657  1  2  5  2  6 10
       0.000002138236  1  2  5  2  7 10
       0.000001783163  1  2  5  2  8 10
       0.000049621724  1  2  5  3  6 10
      -0.000000260755  1  2  5  3  7 10
       0.000001136981  1  2  5  3  8 10
       0.000000457287  1  2  5  4  9 10
      -0.000360958147  1  2  5  5  6  7
      -0.000323474387  1  2  5  5  6  8
       0.000001409314  1  2  5  5  7  8
       0.000004199589  1  3  5  1  2  5
       0.000219250184  1  3  5  1  3  5
      -0.000151009326  1  3  5  1  6 10
       0.000003436479  1  3  5  1  7 10
      -0.000009728970  1  3  5  1  8 10
      -0.000004713488  1  3  5  2  3  5
       0.000043026433  1  3  5  2  6 10
      -0.000003219895  1  3  5  2  7 10
       0.000005956103  1  3  5  2  8 10
       0.000080009624  1  3  5  3  6 10
       0.000000000000  1  3  5  3  7 10
      -0.000000331260  1  3  5  3  8 10
       0.000000000000  1  3  5  4  9 10
       0.000122774549  1  3  5  5  6  7
      -0.000128793278  1  3  5  5  6  8
      -0.000001001264  1  3  5  5  7  8
       0.002191290451  1  6 10  1  2  5
      -0.000151009326  1  6 10  1  3  5
      -0.000960972942  1  6 10  1  6 10
      -0.000638679589  1  6 10  1  7 10
      -0.000222454871  1  6 10  1  8 10
      -0.000005829980  1  6 10  2  3  5
       0.002743330546  1  6 10  2  6 10
      -0.000005145302  1  6 10  2  7 10
       0.000007274788  1  6 10  2  8 10
       0.000014850229  1  6 10  3  6 10
      -0.000000878007  1  6 10  3  7 10
      -0.000005171107  1  6 10  3  8 10
      -0.000003326238  1  6 10  4  9 10
       0.000667983737  1  6 10  5  6  7
       0.000469555662  1  6 10  5  6  8
      -0.000003739841  1  6 10  5  7  8
      -0.000020349975  1  7 10  1  2  5
       0.000003436479  1  7 10  1  3  5
      -0.000638679589  1  7 10  1  6 10
       0.000186817819  1  7 10  1  7 10
       0.000062909124  1  7 10  1  8 10
      -0.000002574551  1  7 10  2  3  5
      -0.000049283783  1  7 10  2  6 10
      -0.000003814237  1  7 10  2  7 10
       0.000000285839  1  7 10  2  8 10
      -0.000005846326  1  7 10  3  6 10
       0.000000461703  1  7 10  3  7 10
       0.000000702941  1  7 10  3  8 10
       0.000000470615  1  7 10  4  9 10
      -0.000169885216  1  7 10  5  6  7
      -0.000075646200  1  7 10  5  6  8
       0.000000968129  1  7 10  5  7  8
      -0.000015794375  1  8 10  1  2  5
      -0.000009728970  1  8 10  1  3  5
      -0.000222454871  1  8 10  1  6 10
       0.000062909124  1  8 10  1  7 10
       0.000038421898  1  8 10  1  8 10
       0.000004381979  1  8 10  2  3  5
      -0.000034576849  1  8 10  2  6 10
       0.000000890016  1  8 10  2  7 10
      -0.000008929770  1  8 10  2  8 10
      -0.000004475651  1  8 10  3  6 10
       0.000000146440  1  8 10  3  7 10
       0.000000157739  1  8 10  3  8 10
       0.000000374039  1  8 10  4  9 10
      -0.000072258515  1  8 10  5  6  7
      -0.000043504530  1  8 10  5  6  8
       0.000001088422  1  8 10  5  7  8
      -0.000000791107  2  3  5  1  2  5
      -0.000004713488  2  3  5  1  3  5
      -0.000005829980  2  3  5  1  6 10
      -0.000002574551  2  3  5  1  7 10
       0.000004381979  2  3  5  1  8 10
       0.000000479134  2  3  5  2  3  5
       0.000001366621  2  3  5  2  6 10
       0.000001511512  2  3  5  2  7 10
      -0.000001977156  2  3  5  2  8 10
      -0.000000684653  2  3  5  3  6 10
      -0.000000469663  2  3  5  3  7 10
      -0.000000260503  2  3  5  3  8 10
       0.000000000000  2  3  5  4  9 10
       0.000000274945  2  3  5  5  6  7
       0.000001699742  2  3  5  5  6  8
       0.000001230512  2  3  5  5  7  8
      -0.000930667657  2  6 10  1  2  5
       0.000043026433  2  6 10  1  3  5
       0.002743330546  2  6 10  1  6 10
      -0.000049283783  2  6 10  1  7 10
      -0.000034576849  2  6 10  1  8 10
       0.000001366621  2  6 10  2  3  5
      -0.001090353436  2  6 10  2  6 10
      -0.000007582853  2  6 10  2  7 10
      -0.000010521143  2  6 10  2  8 10
       0.000049377579  2  6 10  3  6 10
      -0.000000150525  2  6 10  3  7 10
       0.000001823885  2  6 10  3  8 10
       0.000000709398  2  6 10  4  9 10
       0.000052239668  2  6 10  5  6  7
       0.000041645476  2  6 10  5  6  8
       0.000000766621  2  6 10  5  7  8
       0.000002138236  2  7 10  1  2  5
      -0.000003219895  2  7 10  1  3  5
      -0.000005145302  2  7 10  1  6 10
      -0.000003814237  2  7 10  1  7 10
       0.000000890016  2  7 10  1  8 10
       0.000001511512  2  7 10  2  3  5
      -0.000007582853  2  7 10  2  6 10
       0.000005054620  2  7 10  2  7 10
       0.000002589018  2  7 10  2  8 10
       0.000001121619  2  7 10  3  6 10
      -0.000000190957  2  7 10  3  7 10
      -0.000000175362  2  7 10  3  8 10
       0.000000000000  2  7 10  4  9 10
      -0.000005678431  2  7 10  5  6  7
      -0.000003125892  2  7 10  5  6  8
      -0.000000457174  2  7 10  5  7  8
       0.000001783163  2  8 10  1  2  5
       0.000005956103  2  8 10  1  3  5
       0.000007274788  2  8 10  1  6 10
       0.000000285839  2  8 10  1  7 10
      -0.000008929770  2  8 10  1  8 10
      -0.000001977156  2  8 10  2  3  5
      -0.000010521143  2  8 10  2  6 10
       0.000002589018  2  8 10  2  7 10
       0.000006719330  2  8 10  2  8 10
       0.000001570153  2  8 10  3  6 10
      -0.000000095077  2  8 10  3  7 10
      -0.000000337967  2  8 10  3  8 10
       0.000000000000  2  8 10  4  9 10
      -0.000004071468  2  8 10  5  6  7
      -0.000005024459  2  8 10  5  6  8
       0.000000000000  2  8 10  5  7  8
       0.000049621724  3  6 10  1  2  5
       0.000080009624  3  6 10  1  3  5
       0.000014850229  3  6 10  1  6 10
      -0.000005846326  3  6 10  1  7 10
      -0.000004475651  3  6 10  1  8 10
      -0.000000684653  3  6 10  2  3  5
       0.000049377579  3  6 10  2  6 10
       0.000001121619  3  6 10  2  7 10
       0.000001570153  3  6 10  2  8 10
       0.000082512427  3  6 10  3  6 10
       0.000002096489  3  6 10  3  7 10
       0.000001451819  3  6 10  3  8 10
       0.000000000000  3  6 10  4  9 10
       0.000007315820  3  6 10  5  6  7
      -0.000012883792  3  6 10  5  6  8
       0.000002553225  3  6 10  5  7  8
      -0.000000260755  3  7 10  1  2  5
       0.000000000000  3  7 10  1  3  5
      -0.000000878007  3  7 10  1  6 10
       0.000000461703  3  7 10  1  7 10
       0.000000146440  3  7 10  1  8 10
      -0.000000469663  3  7 10  2  3  5
      -0.000000150525  3  7 10  2  6 10
      -0.000000190957  3  7 10  2  7 10
      -0.000000095077  3  7 10  2  8 10
       0.000002096489  3  7 10  3  6 10
      -0.000000936938  3  7 10  3  7 10
      -0.000000428440  3  7 10  3  8 10
       0.000000000000  3  7 10  4  9 10
      -0.000001490886  3  7 10  5  6  7
       0.000001776725  3  7 10  5  6  8
      -0.000000477489  3  7 10  5  7  8
       0.000001136981  3  8 10  1  2  5
      -0.000000331260  3  8 10  1  3  5
      -0.000005171107  3  8 10  1  6 10
       0.000000702941  3  8 10  1  7 10
       0.000000157739  3  8 10  1  8 10
      -0.000000260503  3  8 10  2  3  5
       0.000001823885  3  8 10  2  6 10
      -0.000000175362  3  8 10  2  7 10
      -0.000000337967  3  8 10  2  8 10
       0.000001451819  3  8 10  3  6 10
      -0.000000428440  3  8 10  3  7 10
      -0.000000645141  3  8 10  3  8 10
       0.000000000000  3  8 10  4  9 10
      -0.000001223243  3  8 10  5  6  7
       0.000001569993  3  8 10  5  6  8
      -0.000000261757  3  8 10  5  7  8
       0.000000457287  4  9 10  1  2  5
       0.000000000000  4  9 10  1  3  5
      -0.000003326238  4  9 10  1  6 10
       0.000000470615  4  9 10  1  7 10
       0.000000374039  4  9 10  1  8 10
       0.000000000000  4  9 10  2  3  5
       0.000000709398  4  9 10  2  6 10
       0.000000000000  4  9 10  2  7 10
       0.000000000000  4  9 10  2  8 10
       0.000000000000  4  9 10  3  6 10
       0.000000000000  4  9 10  3  7 10
       0.000000000000  4  9 10  3  8 10
      -0.000000357048  4  9 10  4  9 10
      -0.000000276216  4  9 10  5  6  7
      -0.000000241719  4  9 10  5  6  8
       0.000000000000  4  9 10  5  7  8
      -0.000360958147  5  6  7  1  2  5
       0.000122774549  5  6  7  1  3  5
       0.000667983737  5  6  7  1  6 10
      -0.000169885216  5  6  7  1  7 10
      -0.000072258515  5  6  7  1  8 10
       0.000000274945  5  6  7  2  3  5
       0.000052239668  5  6  7  2  6 10
      -0.000005678431  5  6  7  2  7 10
      -0.000004071468  5  6  7  2  8 10
       0.000007315820  5  6  7  3  6 10
      -0.000001490886  5  6  7  3  7 10
      -0.000001223243  5  6  7  3  8 10
      -0.000000276216  5  6  7  4  9 10
       0.000536479180  5  6  7  5  6  7
       0.000272927496  5  6  7  5  6  8
      -0.000003238083  5  6  7  5  7  8
      -0.000323474387  5  6  8  1  2  5
      -0.000128793278  5  6  8  1  3  5
       0.000469555662  5  6  8  1  6 10
      -0.000075646200  5  6  8  1  7 10
      -0.000043504530  5  6  8  1  8 10
       0.000001699742  5  6  8  2  3  5
       0.000041645476  5  6  8  2  6 10
      -0.000003125892  5  6  8  2  7 10
      -0.000005024459  5  6  8  2  8 10
      -0.000012883792  5  6  8  3  6 10
       0.000001776725  5  6  8  3  7 10
       0.000001569993  5  6  8  3  8 10
      -0.000000241719  5  6  8  4  9 10
       0.000272927496  5  6  8  5  6  7
       0.000473453303  5  6  8  5  6  8
       0.000001814083  5  6  8  5  7  8
       0.000001409314  5  7  8  1  2  5
      -0.000001001264  5  7  8  1  3  5
      -0.000003739841  5  7  8  1  6 10
       0.000000968129  5  7  8  1  7 10
       0.000001088422  5  7  8  1  8 10
       0.000001230512  5  7  8  2  3  5
       0.000000766621  5  7  8  2  6 10
      -0.000000457174  5  7  8  2  7 10
       0.000000000000  5  7  8  2  8 10
       0.000002553225  5  7  8  3  6 10
      -0.000000477489  5  7  8  3  7 10
      -0.000000261757  5  7  8  3  8 10
       0.000000000000  5  7  8  4  9 10
      -0.000003238083  5  7  8  5  6  7
       0.000001814083  5  7  8  5  6  8
      -0.000002465888  5  7  8  5  7  8
       0.000238504847  1  4  5  1  4  5
      -0.000008458676  1  4  5  1  9 10
      -0.000004112692  1  4  5  2  4  5
       0.000005351278  1  4  5  2  9 10
       0.000000804382  1  4  5  3  4  5
      -0.000000460436  1  4  5  3  9 10
       0.000139576775  1  4  5  4  6 10
       0.000000000000  1  4  5  4  7 10
       0.000000475966  1  4  5  4  8 10
      -0.000139576775  1  4  5  5  6  9
       0.000000000000  1  4  5  5  7  9
      -0.000000475966  1  4  5  5  8  9
      -0.000008458676  1  9 10  1  4  5
       0.000009503498  1  9 10  1  9 10
       0.000004444388  1  9 10  2  4  5
      -0.000006395789  1  9 10  2  9 10
      -0.000000362387  1  9 10  3  4  5
       0.000000000000  1  9 10  3  9 10
       0.000000000000  1  9 10  4  6 10
       0.000000000000  1  9 10  4  7 10
      -0.000000243703  1  9 10  4  8 10
       0.000000000000  1  9 10  5  6  9
       0.000000000000  1  9 10  5  7  9
       0.000000243703  1  9 10  5  8  9
      -0.000004112692  2  4  5  1  4  5
       0.000004444388  2  4  5  1  9 10
       0.000000000000  2  4  5  2  4  5
      -0.000001993979  2  4  5  2  9 10
       0.000000000000  2  4  5  3  4  5
       0.000000113154  2  4  5  3  9 10
      -0.000000376393  2  4  5  4  6 10
      -0.000000724531  2  4  5  4  7 10
      -0.000000639967  2  4  5  4  8 10
       0.000000376393  2  4  5  5  6  9
       0.000000724531  2  4  5  5  7  9
       0.000000639967  2  4  5  5  8  9
       0.000005351278  2  9 10  1  4  5
      -0.000006395789  2  9 10  1  9 10
      -0.000001993979  2  9 10  2  4  5
       0.000002797964  2  9 10  2  9 10
       0.000000110301  2  9 10  3  4  5
      -0.000000136108  2  9 10  3  9 10
       0.000000492477  2  9 10  4  6 10
       0.000000000000  2  9 10  4  7 10
       0.000000000000  2  9 10  4  8 10
      -0.000000492477  2  9 10  5  6  9
       0.000000000000  2  9 10  5  7  9
       0.000000000000  2  9 10  5  8  9
       0.000000804382  3  4  5  1  4  5
      -0.000000362387  3  4  5  1  9 10
       0.000000000000  3  4  5  2  4  5
       0.000000110301  3  4  5  2  9 10
      -0.000000508250  3  4  5  3  4  5
       0.000000132916  3  4  5  3  9 10
       0.000000495619  3  4  5  4  6 10
       0.000000229508  3  4  5  4  7 10
      -0.000000241920  3  4  5  4  8 10
      -0.000000495619  3  4  5  5  6  9
      -0.000000229508  3  4  5  5  7  9
       0.000000241920  3  4  5  5  8  9
      -0.000000460436  3  9 10  1  4  5
       0.000000000000  3  9 10  1  9 10
       0.000000113154  3  9 10  2  4  5
      -0.000000136108  3  9 10  2  9 10
       0.000000132916  3  9 10  3  4  5
      -0.000000207032  3  9 10  3  9 10
      -0.000000244327  3  9 10  4  6 10
       0.000000000000  3  9 10  4  7 10
       0.000000000000  3  9 10  4  8 10
       0.000000244327  3  9 10  5  6  9
       0.000000000000  3  9 10  5  7  9
       0.000000000000  3  9 10  5  8  9
       0.000139576775  4  6 10  1  4  5
       0.000000000000  4  6 10  1  9 10
      -0.000000376393  4  6 10  2  4  5
       0.000000492477  4  6 10  2  9 10
       0.000000495619  4  6 10  3  4  5
      -0.000000244327  4  6 10  3  9 10
       0.000152567352  4  6 10  4  6 10
       0.000002006907  4  6 10  4  7 10
       0.000002215448  4  6 10  4  8 10
      -0.000014936073  4  6 10  5  6  9
       0.000001958233  4  6 10  5  7  9
       0.000001435587  4  6 10  5  8  9
       0.000000000000  4  7 10  1  4  5
       0.000000000000  4  7 10  1  9 10
      -0.000000724531  4  7 10  2  4  5
       0.000000000000  4  7 10  2  9 10
       0.000000229508  4  7 10  3  4  5
       0.000000000000  4  7 10  3  9 10
       0.000002006907  4  7 10  4  6 10
      -0.000001209086  4  7 10  4  7 10
      -0.000000604537  4  7 10  4  8 10
       0.000001958233  4  7 10  5  6  9
      -0.000000371075  4  7 10  5  7  9
      -0.000000181748  4  7 10  5  8  9
       0.000000475966  4  8 10  1  4  5
      -0.000000243703  4  8 10  1  9 10
      -0.000000639967  4  8 10  2  4  5
       0.000000000000  4  8 10  2  9 10
      -0.000000241920  4  8 10  3  4  5
       0.000000000000  4  8 10  3  9 10
       0.000002215448  4  8 10  4  6 10
      -0.000000604537  4  8 10  4  7 10
      -0.000001086754  4  8 10  4  8 10
       0.000001435587  4  8 10  5  6  9
      -0.000000181748  4  8 10  5  7  9
      -0.000000107967  4  8 10  5  8  9
      -0.000139576775  5  6  9  1  4  5
       0.000000000000  5  6  9  1  9 10
       0.000000376393  5  6  9  2  4  5
      -0.000000492477  5  6  9  2  9 10
      -0.000000495619  5  6  9  3  4  5
       0.000000244327  5  6  9  3  9 10
      -0.000014936073  5  6  9  4  6 10
       0.000001958233  5  6  9  4  7 10
       0.000001435587  5  6  9  4  8 10
       0.000152567352  5  6  9  5  6  9
       0.000002006907  5  6  9  5  7  9
       0.000002215448  5  6  9  5  8  9
       0.000000000000  5  7  9  1  4  5
       0.000000000000  5  7  9  1  9 10
       0.000000724531  5  7  9  2  4  5
       0.000000000000  5  7  9  2  9 10
      -0.000000229508  5  7  9  3  4  5
       0.000000000000  5  7  9  3  9 10
       0.000001958233  5  7  9  4  6 10
      -0.000000371075  5  7  9  4  7 10
      -0.000000181748  5  7  9  4  8 10
       0.000002006907  5  7  9  5  6  9
      -0.000001209086  5  7  9  5  7  9
      -0.000000604537  5  7  9  5  8  9
      -0.000000475966  5  8  9  1  4  5
       0.000000243703  5  8  9  1  9 10
       0.000000639967  5  8  9  2  4  5
       0.000000000000  5  8  9  2  9 10
       0.000000241920  5  8  9  3  4  5
       0.000000000000  5  8  9  3  9 10
       0.000001435587  5  8  9  4  6 10
      -0.000000181748  5  8  9  4  7 10
      -0.000000107967  5  8  9  4  8 10
       0.000002215448  5  8  9  5  6  9
      -0.000000604537  5  8  9  5  7  9
      -0.000001086754  5  8  9  5  8  9
       0.953286233571  1  2  6  1  2  6
       0.000775510780  1  2  6  1  2  7
       0.000957155040  1  2  6  1  2  8
      -0.043309870954  1  2  6  1  3  6
       0.000175400194  1  2  6  1  3  7
      -0.001677731620  1  2  6  1  3  8
      -0.000621329993  1  2  6  1  4  9
      -0.000621329993  1  2  6  1  5 10
      -0.000301342010  1  2  6  2  3  6
      -0.000062928008  1  2  6  2  3  7
       0.000107843254  1  2  6  2  3  8
       0.000059370325  1  2  6  2  4  9
       0.000059370325  1  2  6  2  5 10
      -0.000002468830  1  2  6  3  4  9
      -0.000002468830  1  2  6  3  5 10
      -0.000417859822  1  2  6  6  7  8
       0.000775510780  1  2  7  1  2  6
      -0.001915853166  1  2  7  1  2  7
      -0.000836532995  1  2  7  1  2  8
       0.001208948530  1  2  7  1  3  6
       0.000045664512  1  2  7  1  3  7
       0.000053830346  1  2  7  1  3  8
       0.000022111305  1  2  7  1  4  9
       0.000022111305  1  2  7  1  5 10
      -0.000775967253  1  2  7  2  3  6
       0.000003643302  1  2  7  2  3  7
      -0.000001186785  1  2  7  2  3  8
      -0.000002544885  1  2  7  2  4  9
      -0.000002544885  1  2  7  2  5 10
      -0.000000263131  1  2  7  3  4  9
      -0.000000263131  1  2  7  3  5 10
       0.000188881611  1  2  7  6  7  8
       0.000957155040  1  2  8  1  2  6
      -0.000836532995  1  2  8  1  2  7
      -0.002620524186  1  2  8  1  2  8
      -0.003462073861  1  2  8  1  3  6
       0.000075596314  1  2  8  1  3  7
       0.000173208020  1  2  8  1  3  8
       0.000018742598  1  2  8  1  4  9
       0.000018742598  1  2  8  1  5 10
       0.001033240635  1  2  8  2  3  6
      -0.000003741899  1  2  8  2  3  7
      -0.000000948832  1  2  8  2  3  8
      -0.000002052402  1  2  8  2  4  9
      -0.000002052402  1  2  8  2  5 10
       0.000000574465  1  2  8  3  4  9
       0.000000574465  1  2  8  3  5 10
       0.000119980263  1  2  8  6  7  8
      -0.043309870954  1  3  6  1  2  6
       0.001208948530  1  3  6  1  2  7
      -0.003462073861  1  3  6  1  2  8
      -0.094254920201  1  3  6  1  3  6
      -0.000656491687  1  3  6  1  3  7
      -0.000538304413  1  3  6  1  3  8
       0.000058943545  1  3  6  1  4  9
       0.000058943545  1  3  6  1  5 10
       0.003280032780  1  3  6  2  3  6
      -0.000006653610  1  3  6  2  3  7
       0.000003274270  1  3  6  2  3  8
      -0.000004671725  1  3  6  2  4  9
      -0.000004671725  1  3  6  2  5 10
      -0.000002821836  1  3  6  3  4  9
      -0.000002821836  1  3  6  3  5 10
      -0.001033766511  1  3  6  6  7  8
       0.000175400194  1  3  7  1  2  6
       0.000045664512  1  3  7  1  2  7
       0.000075596314  1  3  7  1  2  8
      -0.000656491687  1  3  7  1  3  6
       0.000385977611  1  3  7  1  3  7
       0.000158881584  1  3  7  1  3  8
      -0.000002284951  1  3  7  1  4  9
      -0.000002284951  1  3  7  1  5 10
       0.000215342866  1  3  7  2  3  6
      -0.000006311283  1  3  7  2  3  7
       0.000005208023  1  3  7  2  3  8
       0.000000129911  1  3  7  2  4  9
       0.000000129911  1  3  7  2  5 10
       0.000000000000  1  3  7  3  4  9
       0.000000000000  1  3  7  3  5 10
       0.000190100755  1  3  7  6  7  8
      -0.001677731620  1  3  8  1  2  6
       0.000053830346  1  3  8  1  2  7
       0.000173208020  1  3  8  1  2  8
      -0.000538304413  1  3  8  1  3  6
       0.000158881584  1  3  8  1  3  7
       0.000318426651  1  3  8  1  3  8
      -0.000000673779  1  3  8  1  4  9
      -0.000000673779  1  3  8  1  5 10
       0.000132464864  1  3  8  2  3  6
       0.000003305816  1  3  8  2  3  7
      -0.000014153360  1  3  8  2  3  8
       0.000000000000  1  3  8  2  4  9
       0.000000000000  1  3  8  2  5 10
      -0.000000122049  1  3  8  3  4  9
      -0.000000122049  1  3  8  3  5 10
       0.000087065365  1  3  8  6  7  8
      -0.000621329993  1  4  9  1  2  6
       0.000022111305  1  4  9  1  2  7
       0.000018742598  1  4  9  1  2  8
       0.000058943545  1  4  9  1  3  6
      -0.000002284951  1  4  9  1  3  7
      -0.000000673779  1  4  9  1  3  8
       0.000198468723  1  4  9  1  4  9
       0.000000134192  1  4  9  1  5 10
      -0.000003069128  1  4  9  2  3  6
       0.000000000000  1  4  9  2  3  7
      -0.000000102481  1  4  9  2  3  8
      -0.000010753749  1  4  9  2  4  9
       0.000000000000  1  4  9  2  5 10
       0.000001140166  1  4  9  3  4  9
       0.000000000000  1  4  9  3  5 10
      -0.000000327980  1  4  9  6  7  8
      -0.000621329993  1  5 10  1  2  6
       0.000022111305  1  5 10  1  2  7
       0.000018742598  1  5 10  1  2  8
       0.000058943545  1  5 10  1  3  6
      -0.000002284951  1  5 10  1  3  7
      -0.000000673779  1  5 10  1  3  8
       0.000000134192  1  5 10  1  4  9
       0.000198468723  1  5 10  1  5 10
      -0.000003069128  1  5 10  2  3  6
       0.000000000000  1  5 10  2  3  7
      -0.000000102481  1  5 10  2  3  8
       0.000000000000  1  5 10  2  4  9
      -0.000010753749  1  5 10  2  5 10
       0.000000000000  1  5 10  3  4  9
       0.000001140166  1  5 10  3  5 10
      -0.000000327980  1  5 10  6  7  8
      -0.000301342010  2  3  6  1  2  6
      -0.000775967253  2  3  6  1  2  7
       0.001033240635  2  3  6  1  2  8
       0.003280032780  2  3  6  1  3  6
       0.000215342866  2  3  6  1  3  7
       0.000132464864  2  3  6  1  3  8
      -0.000003069128  2  3  6  1  4  9
      -0.000003069128  2  3  6  1  5 10
      -0.000823634710  2  3  6  2  3  6
      -0.000002841449  2  3  6  2  3  7
      -0.000004516884  2  3  6  2  3  8
       0.000000415578  2  3  6  2  4  9
       0.000000415578  2  3  6  2  5 10
      -0.000000331676  2  3  6  3  4  9
      -0.000000331676  2  3  6  3  5 10
      -0.000035761013  2  3  6  6  7  8
      -0.000062928008  2  3  7  1  2  6
       0.000003643302  2  3  7  1  2  7
      -0.000003741899  2  3  7  1  2  8
      -0.000006653610  2  3  7  1  3  6
      -0.000006311283  2  3  7  1  3  7
       0.000003305816  2  3  7  1  3  8
       0.000000000000  2  3  7  1  4  9
       0.000000000000  2  3  7  1  5 10
      -0.000002841449  2  3  7  2  3  6
       0.000003102847  2  3  7  2  3  7
      -0.000001157601  2  3  7  2  3  8
       0.000000000000  2  3  7  2  4  9
       0.000000000000  2  3  7  2  5 10
       0.000000000000  2  3  7  3  4  9
       0.000000000000  2  3  7  3  5 10
       0.000006043151  2  3  7  6  7  8
       0.000107843254  2  3  8  1  2  6
      -0.000001186785  2  3  8  1  2  7
      -0.000000948832  2  3  8  1  2  8
       0.000003274270  2  3  8  1  3  6
       0.000005208023  2  3  8  1  3  7
      -0.000014153360  2  3  8  1  3  8
      -0.000000102481  2  3  8  1  4  9
      -0.000000102481  2  3  8  1  5 10
      -0.000004516884  2  3  8  2  3  6
      -0.000001157601  2  3  8  2  3  7
       0.000005390853  2  3  8  2  3  8
       0.000000000000  2  3  8  2  4  9
       0.000000000000  2  3  8  2  5 10
       0.000000000000  2  3  8  3  4  9
       0.000000000000  2  3  8  3  5 10
       0.000004546017  2  3  8  6  7  8
       0.000059370325  2  4  9  1  2  6
      -0.000002544885  2  4  9  1  2  7
      -0.000002052402  2  4  9  1  2  8
      -0.000004671725  2  4  9  1  3  6
       0.000000129911  2  4  9  1  3  7
       0.000000000000  2  4  9  1  3  8
      -0.000010753749  2  4  9  1  4  9
       0.000000000000  2  4  9  1  5 10
       0.000000415578  2  4  9  2  3  6
       0.000000000000  2  4  9  2  3  7
       0.000000000000  2  4  9  2  3  8
       0.000002911248  2  4  9  2  4  9
       0.000000000000  2  4  9  2  5 10
      -0.000000140677  2  4  9  3  4  9
       0.000000000000  2  4  9  3  5 10
       0.000000000000  2  4  9  6  7  8
       0.000059370325  2  5 10  1  2  6
      -0.000002544885  2  5 10  1  2  7
      -0.000002052402  2  5 10  1  2  8
      -0.000004671725  2  5 10  1  3  6
       0.000000129911  2  5 10  1  3  7
       0.000000000000  2  5 10  1  3  8
       0.000000000000  2  5 10  1  4  9
      -0.000010753749  2  5 10  1  5 10
       0.000000415578  2  5 10  2  3  6
       0.000000000000  2  5 10  2  3  7
       0.000000000000  2  5 10  2  3  8
       0.000000000000  2  5 10  2  4  9
       0.000002911248  2  5 10  2  5 10
       0.000000000000  2  5 10  3  4  9
      -0.000000140677  2  5 10  3  5 10
       0.000000000000  2  5 10  6  7  8
      -0.000002468830  3  4  9  1  2  6
      -0.000000263131  3  4  9  1  2  7
       0.000000574465  3  4  9  1  2  8
      -0.000002821836  3  4  9  1  3  6
       0.000000000000  3  4  9  1  3  7
      -0.000000122049  3  4  9  1  3  8
       0.000001140166  3  4  9  1  4  9
       0.000000000000  3  4  9  1  5 10
      -0.000000331676  3  4  9  2  3  6
       0.000000000000  3  4  9  2  3  7
       0.000000000000  3  4  9  2  3  8
      -0.000000140677  3  4  9  2  4  9
       0.000000000000  3  4  9  2  5 10
      -0.000000614494  3  4  9  3  4  9
       0.000000000000  3  4  9  3  5 10
      -0.000000437900  3  4  9  6  7  8
      -0.000002468830  3  5 10  1  2  6
      -0.000000263131  3  5 10  1  2  7
       0.000000574465  3  5 10  1  2  8
      -0.000002821836  3  5 10  1  3  6
       0.000000000000  3  5 10  1  3  7
      -0.000000122049  3  5 10  1  3  8
       0.000000000000  3  5 10  1  4  9
       0.000001140166  3  5 10  1  5 10
      -0.000000331676  3  5 10  2  3  6
       0.000000000000  3  5 10  2  3  7
       0.000000000000  3  5 10  2  3  8
       0.000000000000  3  5 10  2  4  9
      -0.000000140677  3  5 10  2  5 10
       0.000000000000  3  5 10  3  4  9
      -0.000000614494  3  5 10  3  5 10
      -0.000000437900  3  5 10  6  7  8
      -0.000417859822  6  7  8  1  2  6
       0.000188881611  6  7  8  1  2  7
       0.000119980263  6  7  8  1  2  8
      -0.001033766511  6  7  8  1  3  6
       0.000190100755  6  7  8  1  3  7
       0.000087065365  6  7  8  1  3  8
      -0.000000327980  6  7  8  1  4  9
      -0.000000327980  6  7  8  1  5 10
      -0.000035761013  6  7  8  2  3  6
       0.000006043151  6  7  8  2  3  7
       0.000004546017  6  7  8  2  3  8
       0.000000000000  6  7  8  2  4  9
       0.000000000000  6  7  8  2  5 10
      -0.000000437900  6  7  8  3  4  9
      -0.000000437900  6  7  8  3  5 10
       0.000373375168  6  7  8  6  7  8
      -0.001174761131  1  2  9  1  2  9
       0.000056281095  1  2  9  1  3  9
      -0.002812473395  1  2  9  1  4  6
       0.000042460863  1  2  9  1  4  7
       0.000034481899  1  2  9  1  4  8
       0.000001693331  1  2  9  2  3  9
       0.000990070018  1  2  9  2  4  6
      -0.000004698292  1  2  9  2  4  7
      -0.000003695535  1  2  9  2  4  8
      -0.000051415985  1  2  9  3  4  6
       0.000000386964  1  2  9  3  4  7
      -0.000001018029  1  2  9  3  4  8
       0.000000459970  1  2  9  4  5 10
       0.000044211180  1  2  9  6  7  9
       0.000041900038  1  2  9  6  8  9
      -0.000000641550  1  2  9  7  8  9
       0.000056281095  1  3  9  1  2  9
       0.000114972391  1  3  9  1  3  9
       0.000209938238  1  3  9  1  4  6
      -0.000005643560  1  3  9  1  4  7
       0.000009019554  1  3  9  1  4  8
      -0.000006864081  1  3  9  2  3  9
      -0.000048479610  1  3  9  2  4  6
       0.000002965136  1  3  9  2  4  7
      -0.000005474936  1  3  9  2  4  8
      -0.000082845762  1  3  9  3  4  6
       0.000000000000  1  3  9  3  4  7
       0.000000199504  1  3  9  3  4  8
       0.000000000000  1  3  9  4  5 10
       0.000004872905  1  3  9  6  7  9
      -0.000000762769  1  3  9  6  8  9
       0.000000561333  1  3  9  7  8  9
      -0.002812473395  1  4  6  1  2  9
       0.000209938238  1  4  6  1  3  9
      -0.162077246847  1  4  6  1  4  6
      -0.000584801515  1  4  6  1  4  7
      -0.000943762354  1  4  6  1  4  8
       0.000003510528  1  4  6  2  3  9
       0.002684095743  1  4  6  2  4  6
      -0.000008013244  1  4  6  2  4  7
       0.000002199324  1  4  6  2  4  8
      -0.000528881916  1  4  6  3  4  6
      -0.000011518599  1  4  6  3  4  7
       0.000012401684  1  4  6  3  4  8
      -0.000008020673  1  4  6  4  5 10
      -0.000943050637  1  4  6  6  7  9
      -0.000710131755  1  4  6  6  8  9
       0.000006127283  1  4  6  7  8  9
       0.000042460863  1  4  7  1  2  9
      -0.000005643560  1  4  7  1  3  9
      -0.000584801515  1  4  7  1  4  6
       0.000529595780  1  4  7  1  4  7
       0.000238320296  1  4  7  1  4  8
       0.000002971148  1  4  7  2  3  9
       0.000352932189  1  4  7  2  4  6
      -0.000003679981  1  4  7  2  4  7
       0.000002224411  1  4  7  2  4  8
      -0.000134380792  1  4  7  3  4  6
       0.000002308805  1  4  7  3  4  7
      -0.000000287206  1  4  7  3  4  8
       0.000000222608  1  4  7  4  5 10
       0.000158039830  1  4  7  6  7  9
       0.000069615046  1  4  7  6  8  9
      -0.000000838446  1  4  7  7  8  9
       0.000034481899  1  4  8  1  2  9
       0.000009019554  1  4  8  1  3  9
      -0.000943762354  1  4  8  1  4  6
       0.000238320296  1  4  8  1  4  7
       0.000495140314  1  4  8  1  4  8
      -0.000004905276  1  4  8  2  3  9
       0.000325724718  1  4  8  2  4  6
       0.000000795400  1  4  8  2  4  7
      -0.000006035496  1  4  8  2  4  8
       0.000141204980  1  4  8  3  4  6
       0.000000706982  1  4  8  3  4  7
       0.000001837521  1  4  8  3  4  8
       0.000000167023  1  4  8  4  5 10
       0.000062976953  1  4  8  6  7  9
       0.000041316742  1  4  8  6  8  9
      -0.000001975928  1  4  8  7  8  9
       0.000001693331  2  3  9  1  2  9
      -0.000006864081  2  3  9  1  3  9
       0.000003510528  2  3  9  1  4  6
       0.000002971148  2  3  9  1  4  7
      -0.000004905276  2  3  9  1  4  8
       0.000001863913  2  3  9  2  3  9
      -0.000000963168  2  3  9  2  4  6
      -0.000001482922  2  3  9  2  4  7
       0.000002055018  2  3  9  2  4  8
       0.000000318160  2  3  9  3  4  6
       0.000000496234  2  3  9  3  4  7
       0.000000285401  2  3  9  3  4  8
       0.000000000000  2  3  9  4  5 10
      -0.000001266404  2  3  9  6  7  9
       0.000000305246  2  3  9  6  8  9
      -0.000000079503  2  3  9  7  8  9
       0.000990070018  2  4  6  1  2  9
      -0.000048479610  2  4  6  1  3  9
       0.002684095743  2  4  6  1  4  6
       0.000352932189  2  4  6  1  4  7
       0.000325724718  2  4  6  1  4  8
      -0.000000963168  2  4  6  2  3  9
      -0.000371239915  2  4  6  2  4  6
      -0.000003821310  2  4  6  2  4  7
      -0.000003269103  2  4  6  2  4  8
       0.000006568778  2  4  6  3  4  6
       0.000001600334  2  4  6  3  4  7
       0.000001412002  2  4  6  3  4  8
       0.000000000000  2  4  6  4  5 10
      -0.000033483701  2  4  6  6  7  9
      -0.000025124583  2  4  6  6  8  9
      -0.000000942367  2  4  6  7  8  9
      -0.000004698292  2  4  7  1  2  9
       0.000002965136  2  4  7  1  3  9
      -0.000008013244  2  4  7  1  4  6
      -0.000003679981  2  4  7  1  4  7
       0.000000795400  2  4  7  1  4  8
      -0.000001482922  2  4  7  2  3  9
      -0.000003821310  2  4  7  2  4  6
      -0.000000786883  2  4  7  2  4  7
      -0.000001269907  2  4  7  2  4  8
       0.000001341923  2  4  7  3  4  6
       0.000000689250  2  4  7  3  4  7
       0.000000614070  2  4  7  3  4  8
       0.000000000000  2  4  7  4  5 10
       0.000005489520  2  4  7  6  7  9
       0.000003370974  2  4  7  6  8  9
       0.000000419985  2  4  7  7  8  9
      -0.000003695535  2  4  8  1  2  9
      -0.000005474936  2  4  8  1  3  9
       0.000002199324  2  4  8  1  4  6
       0.000002224411  2  4  8  1  4  7
      -0.000006035496  2  4  8  1  4  8
       0.000002055018  2  4  8  2  3  9
      -0.000003269103  2  4  8  2  4  6
      -0.000001269907  2  4  8  2  4  7
       0.000000388756  2  4  8  2  4  8
      -0.000000292971  2  4  8  3  4  6
      -0.000000634879  2  4  8  3  4  7
      -0.000000643221  2  4  8  3  4  8
       0.000000000000  2  4  8  4  5 10
       0.000004265441  2  4  8  6  7  9
       0.000004064121  2  4  8  6  8  9
       0.000000141905  2  4  8  7  8  9
      -0.000051415985  3  4  6  1  2  9
      -0.000082845762  3  4  6  1  3  9
      -0.000528881916  3  4  6  1  4  6
      -0.000134380792  3  4  6  1  4  7
       0.000141204980  3  4  6  1  4  8
       0.000000318160  3  4  6  2  3  9
       0.000006568778  3  4  6  2  4  6
       0.000001341923  3  4  6  2  4  7
      -0.000000292971  3  4  6  2  4  8
       0.000218912428  3  4  6  3  4  6
       0.000000356664  3  4  6  3  4  7
       0.000001994163  3  4  6  3  4  8
       0.000000000000  3  4  6  4  5 10
      -0.000011340673  3  4  6  6  7  9
       0.000009072517  3  4  6  6  8  9
      -0.000002908436  3  4  6  7  8  9
       0.000000386964  3  4  7  1  2  9
       0.000000000000  3  4  7  1  3  9
      -0.000011518599  3  4  7  1  4  6
       0.000002308805  3  4  7  1  4  7
       0.000000706982  3  4  7  1  4  8
       0.000000496234  3  4  7  2  3  9
       0.000001600334  3  4  7  2  4  6
       0.000000689250  3  4  7  2  4  7
      -0.000000634879  3  4  7  2  4  8
       0.000000356664  3  4  7  3  4  6
      -0.000001601274  3  4  7  3  4  7
      -0.000000451967  3  4  7  3  4  8
       0.000000000000  3  4  7  4  5 10
       0.000001414677  3  4  7  6  7  9
      -0.000001447434  3  4  7  6  8  9
       0.000000480769  3  4  7  7  8  9
      -0.000001018029  3  4  8  1  2  9
       0.000000199504  3  4  8  1  3  9
       0.000012401684  3  4  8  1  4  6
      -0.000000287206  3  4  8  1  4  7
       0.000001837521  3  4  8  1  4  8
       0.000000285401  3  4  8  2  3  9
       0.000001412002  3  4  8  2  4  6
       0.000000614070  3  4  8  2  4  7
      -0.000000643221  3  4  8  2  4  8
       0.000001994163  3  4  8  3  4  6
      -0.000000451967  3  4  8  3  4  7
      -0.000001573906  3  4  8  3  4  8
       0.000000000000  3  4  8  4  5 10
       0.000001084189  3  4  8  6  7  9
      -0.000001166342  3  4  8  6  8  9
       0.000000244231  3  4  8  7  8  9
       0.000000459970  4  5 10  1  2  9
       0.000000000000  4  5 10  1  3  9
      -0.000008020673  4  5 10  1  4  6
       0.000000222608  4  5 10  1  4  7
       0.000000167023  4  5 10  1  4  8
       0.000000000000  4  5 10  2  3  9
       0.000000000000  4  5 10  2  4  6
       0.000000000000  4  5 10  2  4  7
       0.000000000000  4  5 10  2  4  8
       0.000000000000  4  5 10  3  4  6
       0.000000000000  4  5 10  3  4  7
       0.000000000000  4  5 10  3  4  8
      -0.000000774800  4  5 10  4  5 10
      -0.000000272381  4  5 10  6  7  9
      -0.000000240214  4  5 10  6  8  9
       0.000000000000  4  5 10  7  8  9
       0.000044211180  6  7  9  1  2  9
       0.000004872905  6  7  9  1  3  9
      -0.000943050637  6  7  9  1  4  6
       0.000158039830  6  7  9  1  4  7
       0.000062976953  6  7  9  1  4  8
      -0.000001266404  6  7  9  2  3  9
      -0.000033483701  6  7  9  2  4  6
       0.000005489520  6  7  9  2  4  7
       0.000004265441  6  7  9  2  4  8
      -0.000011340673  6  7  9  3  4  6
       0.000001414677  6  7  9  3  4  7
       0.000001084189  6  7  9  3  4  8
      -0.000000272381  6  7  9  4  5 10
       0.000174643844  6  7  9  6  7  9
       0.000076352708  6  7  9  6  8  9
      -0.000001884540  6  7  9  7  8  9
       0.000041900038  6  8  9  1  2  9
      -0.000000762769  6  8  9  1  3  9
      -0.000710131755  6  8  9  1  4  6
       0.000069615046  6  8  9  1  4  7
       0.000041316742  6  8  9  1  4  8
       0.000000305246  6  8  9  2  3  9
      -0.000025124583  6  8  9  2  4  6
       0.000003370974  6  8  9  2  4  7
       0.000004064121  6  8  9  2  4  8
       0.000009072517  6  8  9  3  4  6
      -0.000001447434  6  8  9  3  4  7
      -0.000001166342  6  8  9  3  4  8
      -0.000000240214  6  8  9  4  5 10
       0.000076352708  6  8  9  6  7  9
       0.000026404615  6  8  9  6  8  9
       0.000002056253  6  8  9  7  8  9
      -0.000000641550  7  8  9  1  2  9
       0.000000561333  7  8  9  1  3  9
       0.000006127283  7  8  9  1  4  6
      -0.000000838446  7  8  9  1  4  7
      -0.000001975928  7  8  9  1  4  8
      -0.000000079503  7  8  9  2  3  9
      -0.000000942367  7  8  9  2  4  6
       0.000000419985  7  8  9  2  4  7
       0.000000141905  7  8  9  2  4  8
      -0.000002908436  7  8  9  3  4  6
       0.000000480769  7  8  9  3  4  7
       0.000000244231  7  8  9  3  4  8
       0.000000000000  7  8  9  4  5 10
      -0.000001884540  7  8  9  6  7  9
       0.000002056253  7  8  9  6  8  9
      -0.000000960594  7  8  9  7  8  9
      -0.001174761131  1  2 10  1  2 10
       0.000056281095  1  2 10  1  3 10
      -0.002812473395  1  2 10  1  5  6
       0.000042460863  1  2 10  1  5  7
       0.000034481899  1  2 10  1  5  8
       0.000001693331  1  2 10  2  3 10
       0.000990070018  1  2 10  2  5  6
      -0.000004698292  1  2 10  2  5  7
      -0.000003695535  1  2 10  2  5  8
      -0.000051415985  1  2 10  3  5  6
       0.000000386964  1  2 10  3  5  7
      -0.000001018029  1  2 10  3  5  8
      -0.000000459970  1  2 10  4  5  9
       0.000044211180  1  2 10  6  7 10
       0.000041900038  1  2 10  6  8 10
      -0.000000641550  1  2 10  7  8 10
       0.000056281095  1  3 10  1  2 10
       0.000114972391  1  3 10  1  3 10
       0.000209938238  1  3 10  1  5  6
      -0.000005643560  1  3 10  1  5  7
       0.000009019554  1  3 10  1  5  8
      -0.000006864081  1  3 10  2  3 10
      -0.000048479610  1  3 10  2  5  6
       0.000002965136  1  3 10  2  5  7
      -0.000005474936  1  3 10  2  5  8
      -0.000082845762  1  3 10  3  5  6
       0.000000000000  1  3 10  3  5  7
       0.000000199504  1  3 10  3  5  8
       0.000000000000  1  3 10  4  5  9
       0.000004872905  1  3 10  6  7 10
      -0.000000762769  1  3 10  6  8 10
       0.000000561333  1  3 10  7  8 10
      -0.002812473395  1  5  6  1  2 10
       0.000209938238  1  5  6  1  3 10
      -0.162077246847  1  5  6  1  5  6
      -0.000584801515  1  5  6  1  5  7
      -0.000943762354  1  5  6  1  5  8
       0.000003510528  1  5  6  2  3 10
       0.002684095743  1  5  6  2  5  6
      -0.000008013244  1  5  6  2  5  7
       0.000002199324  1  5  6  2  5  8
      -0.000528881916  1  5  6  3  5  6
      -0.000011518599  1  5  6  3  5  7
       0.000012401684  1  5  6  3  5  8
       0.000008020673  1  5  6  4  5  9
      -0.000943050637  1  5  6  6  7 10
      -0.000710131755  1  5  6  6  8 10
       0.000006127283  1  5  6  7  8 10
       0.000042460863  1  5  7  1  2 10
      -0.000005643560  1  5  7  1  3 10
      -0.000584801515  1  5  7  1  5  6
       0.000529595780  1  5  7  1  5  7
       0.000238320296  1  5  7  1  5  8
       0.000002971148  1  5  7  2  3 10
       0.000352932189  1  5  7  2  5  6
      -0.000003679981  1  5  7  2  5  7
       0.000002224411  1  5  7  2  5  8
      -0.000134380792  1  5  7  3  5  6
       0.000002308805  1  5  7  3  5  7
      -0.000000287206  1  5  7  3  5  8
      -0.000000222608  1  5  7  4  5  9
       0.000158039830  1  5  7  6  7 10
       0.000069615046  1  5  7  6  8 10
      -0.000000838446  1  5  7  7  8 10
       0.000034481899  1  5  8  1  2 10
       0.000009019554  1  5  8  1  3 10
      -0.000943762354  1  5  8  1  5  6
       0.000238320296  1  5  8  1  5  7
       0.000495140314  1  5  8  1  5  8
      -0.000004905276  1  5  8  2  3 10
       0.000325724718  1  5  8  2  5  6
       0.000000795400  1  5  8  2  5  7
      -0.000006035496  1  5  8  2  5  8
       0.000141204980  1  5  8  3  5  6
       0.000000706982  1  5  8  3  5  7
       0.000001837521  1  5  8  3  5  8
      -0.000000167023  1  5  8  4  5  9
       0.000062976953  1  5  8  6  7 10
       0.000041316742  1  5  8  6  8 10
      -0.000001975928  1  5  8  7  8 10
       0.000001693331  2  3 10  1  2 10
      -0.000006864081  2  3 10  1  3 10
       0.000003510528  2  3 10  1  5  6
       0.000002971148  2  3 10  1  5  7
      -0.000004905276  2  3 10  1  5  8
       0.000001863913  2  3 10  2  3 10
      -0.000000963168  2  3 10  2  5  6
      -0.000001482922  2  3 10  2  5  7
       0.000002055018  2  3 10  2  5  8
       0.000000318160  2  3 10  3  5  6
       0.000000496234  2  3 10  3  5  7
       0.000000285401  2  3 10  3  5  8
       0.000000000000  2  3 10  4  5  9
      -0.000001266404  2  3 10  6  7 10
       0.000000305246  2  3 10  6  8 10
      -0.000000079503  2  3 10  7  8 10
       0.000990070018  2  5  6  1  2 10
      -0.000048479610  2  5  6  1  3 10
       0.002684095743  2  5  6  1  5  6
       0.000352932189  2  5  6  1  5  7
       0.000325724718  2  5  6  1  5  8
      -0.000000963168  2  5  6  2  3 10
      -0.000371239915  2  5  6  2  5  6
      -0.000003821310  2  5  6  2  5  7
      -0.000003269103  2  5  6  2  5  8
       0.000006568778  2  5  6  3  5  6
       0.000001600334  2  5  6  3  5  7
       0.000001412002  2  5  6  3  5  8
       0.000000000000  2  5  6  4  5  9
      -0.000033483701  2  5  6  6  7 10
      -0.000025124583  2  5  6  6  8 10
      -0.000000942367  2  5  6  7  8 10
      -0.000004698292  2  5  7  1  2 10
       0.000002965136  2  5  7  1  3 10
      -0.000008013244  2  5  7  1  5  6
      -0.000003679981  2  5  7  1  5  7
       0.000000795400  2  5  7  1  5  8
      -0.000001482922  2  5  7  2  3 10
      -0.000003821310  2  5  7  2  5  6
      -0.000000786883  2  5  7  2  5  7
      -0.000001269907  2  5  7  2  5  8
       0.000001341923  2  5  7  3  5  6
       0.000000689250  2  5  7  3  5  7
       0.000000614070  2  5  7  3  5  8
       0.000000000000  2  5  7  4  5  9
       0.000005489520  2  5  7  6  7 10
       0.000003370974  2  5  7  6  8 10
       0.000000419985  2  5  7  7  8 10
      -0.000003695535  2  5  8  1  2 10
      -0.000005474936  2  5  8  1  3 10
       0.000002199324  2  5  8  1  5  6
       0.000002224411  2  5  8  1  5  7
      -0.000006035496  2  5  8  1  5  8
       0.000002055018  2  5  8  2  3 10
      -0.000003269103  2  5  8  2  5  6
      -0.000001269907  2  5  8  2  5  7
       0.000000388756  2  5  8  2  5  8
      -0.000000292971  2  5  8  3  5  6
      -0.000000634879  2  5  8  3  5  7
      -0.000000643221  2  5  8  3  5  8
       0.000000000000  2  5  8  4  5  9
       0.000004265441  2  5  8  6  7 10
       0.000004064121  2  5  8  6  8 10
       0.000000141905  2  5  8  7  8 10
      -0.000051415985  3  5  6  1  2 10
      -0.000082845762  3  5  6  1  3 10
      -0.000528881916  3  5  6  1  5  6
      -0.000134380792  3  5  6  1  5  7
       0.000141204980  3  5  6  1  5  8
       0.000000318160  3  5  6  2  3 10
       0.000006568778  3  5  6  2  5  6
       0.000001341923  3  5  6  2  5  7
      -0.000000292971  3  5  6  2  5  8
       0.000218912428  3  5  6  3  5  6
       0.000000356664  3  5  6  3  5  7
       0.000001994163  3  5  6  3  5  8
       0.000000000000  3  5  6  4  5  9
      -0.000011340673  3  5  6  6  7 10
       0.000009072517  3  5  6  6  8 10
      -0.000002908436  3  5  6  7  8 10
       0.000000386964  3  5  7  1  2 10
       0.000000000000  3  5  7  1  3 10
      -0.000011518599  3  5  7  1  5  6
       0.000002308805  3  5  7  1  5  7
       0.000000706982  3  5  7  1  5  8
       0.000000496234  3  5  7  2  3 10
       0.000001600334  3  5  7  2  5  6
       0.000000689250  3  5  7  2  5  7
      -0.000000634879  3  5  7  2  5  8
       0.000000356664  3  5  7  3  5  6
      -0.000001601274  3  5  7  3  5  7
      -0.000000451967  3  5  7  3  5  8
       0.000000000000  3  5  7  4  5  9
       0.000001414677  3  5  7  6  7 10
      -0.000001447434  3  5  7  6  8 10
       0.000000480769  3  5  7  7  8 10
      -0.000001018029  3  5  8  1  2 10
       0.000000199504  3  5  8  1  3 10
       0.000012401684  3  5  8  1  5  6
      -0.000000287206  3  5  8  1  5  7
       0.000001837521  3  5  8  1  5  8
       0.000000285401  3  5  8  2  3 10
       0.000001412002  3  5  8  2  5  6
       0.000000614070  3  5  8  2  5  7
      -0.000000643221  3  5  8  2  5  8
       0.000001994163  3  5  8  3  5  6
      -0.000000451967  3  5  8  3  5  7
      -0.000001573906  3  5  8  3  5  8
       0.000000000000  3  5  8  4  5  9
       0.000001084189  3  5  8  6  7 10
      -0.000001166342  3  5  8  6  8 10
       0.000000244231  3  5  8  7  8 10
      -0.000000459970  4  5  9  1  2 10
       0.000000000000  4  5  9  1  3 10
       0.000008020673  4  5  9  1  5  6
      -0.000000222608  4  5  9  1  5  7
      -0.000000167023  4  5  9  1  5  8
       0.000000000000  4  5  9  2  3 10
       0.000000000000  4  5  9  2  5  6
       0.000000000000  4  5  9  2  5  7
       0.000000000000  4  5  9  2  5  8
       0.000000000000  4  5  9  3  5  6
       0.000000000000  4  5  9  3  5  7
       0.000000000000  4  5  9  3  5  8
      -0.000000774800  4  5  9  4  5  9
       0.000000272381  4  5  9  6  7 10
       0.000000240214  4  5  9  6  8 10
       0.000000000000  4  5  9  7  8 10
       0.000044211180  6  7 10  1  2 10
       0.000004872905  6  7 10  1  3 10
      -0.000943050637  6  7 10  1  5  6
       0.000158039830  6  7 10  1  5  7
       0.000062976953  6  7 10  1  5  8
      -0.000001266404  6  7 10  2  3 10
      -0.000033483701  6  7 10  2  5  6
       0.000005489520  6  7 10  2  5  7
       0.000004265441  6  7 10  2  5  8
      -0.000011340673  6  7 10  3  5  6
       0.000001414677  6  7 10  3  5  7
       0.000001084189  6  7 10  3  5  8
       0.000000272381  6  7 10  4  5  9
       0.000174643844  6  7 10  6  7 10
       0.000076352708  6  7 10  6  8 10
      -0.000001884540  6  7 10  7  8 10
       0.000041900038  6  8 10  1  2 10
      -0.000000762769  6  8 10  1  3 10
      -0.000710131755  6  8 10  1  5  6
       0.000069615046  6  8 10  1  5  7
       0.000041316742  6  8 10  1  5  8
       0.000000305246  6  8 10  2  3 10
      -0.000025124583  6  8 10  2  5  6
       0.000003370974  6  8 10  2  5  7
       0.000004064121  6  8 10  2  5  8
       0.000009072517  6  8 10  3  5  6
      -0.000001447434  6  8 10  3  5  7
      -0.000001166342  6  8 10  3  5  8
       0.000000240214  6  8 10  4  5  9
       0.000076352708  6  8 10  6  7 10
       0.000026404615  6  8 10  6  8 10
       0.000002056253  6  8 10  7  8 10
      -0.000000641550  7  8 10  1  2 10
       0.000000561333  7  8 10  1  3 10
       0.000006127283  7  8 10  1  5  6
      -0.000000838446  7  8 10  1  5  7
      -0.000001975928  7  8 10  1  5  8
      -0.000000079503  7  8 10  2  3 10
      -0.000000942367  7  8 10  2  5  6
       0.000000419985  7  8 10  2  5  7
       0.000000141905  7  8 10  2  5  8
      -0.000002908436  7  8 10  3  5  6
       0.000000480769  7  8 10  3  5  7
       0.000000244231  7  8 10  3  5  8
       0.000000000000  7  8 10  4  5  9
      -0.000001884540  7  8 10  6  7 10
       0.000002056253  7  8 10  6  8 10
      -0.000000960594  7  8 10  7  8 10
       0.000189701347  1  4 10  1  4 10
       0.000008639936  1  4 10  1  5  9
      -0.000005736736  1  4 10  2  4 10
      -0.000004923118  1  4 10  2  5  9
       0.000000738384  1  4 10  3  4 10
       0.000000410653  1  4 10  3  5  9
      -0.000147606945  1  4 10  4  5  6
       0.000000277827  1  4 10  4  5  7
      -0.000000312583  1  4 10  4  5  8
      -0.000003459812  1  4 10  6  9 10
       0.000000565133  1  4 10  7  9 10
       0.000000631814  1  4 10  8  9 10
       0.000008639936  1  5  9  1  4 10
       0.000189701347  1  5  9  1  5  9
      -0.000004923118  1  5  9  2  4 10
      -0.000005736736  1  5  9  2  5  9
       0.000000410653  1  5  9  3  4 10
       0.000000738384  1  5  9  3  5  9
       0.000147606945  1  5  9  4  5  6
      -0.000000277827  1  5  9  4  5  7
       0.000000312583  1  5  9  4  5  8
       0.000003459812  1  5  9  6  9 10
      -0.000000565133  1  5  9  7  9 10
      -0.000000631814  1  5  9  8  9 10
      -0.000005736736  2  4 10  1  4 10
      -0.000004923118  2  4 10  1  5  9
       0.000000986450  2  4 10  2  4 10
       0.000001997903  2  4 10  2  5  9
       0.000000000000  2  4 10  3  4 10
      -0.000000111616  2  4 10  3  5  9
       0.000000427077  2  4 10  4  5  6
       0.000000729479  2  4 10  4  5  7
       0.000000646632  2  4 10  4  5  8
       0.000000205796  2  4 10  6  9 10
       0.000000000000  2  4 10  7  9 10
       0.000000000000  2  4 10  8  9 10
      -0.000004923118  2  5  9  1  4 10
      -0.000005736736  2  5  9  1  5  9
       0.000001997903  2  5  9  2  4 10
       0.000000986450  2  5  9  2  5  9
      -0.000000111616  2  5  9  3  4 10
       0.000000000000  2  5  9  3  5  9
      -0.000000427077  2  5  9  4  5  6
      -0.000000729479  2  5  9  4  5  7
      -0.000000646632  2  5  9  4  5  8
      -0.000000205796  2  5  9  6  9 10
       0.000000000000  2  5  9  7  9 10
       0.000000000000  2  5  9  8  9 10
       0.000000738384  3  4 10  1  4 10
       0.000000410653  3  4 10  1  5  9
       0.000000000000  3  4 10  2  4 10
      -0.000000111616  3  4 10  2  5  9
      -0.000000445946  3  4 10  3  4 10
      -0.000000132719  3  4 10  3  5  9
      -0.000000446420  3  4 10  4  5  6
      -0.000000232972  3  4 10  4  5  7
       0.000000240391  3  4 10  4  5  8
       0.000000165080  3  4 10  6  9 10
       0.000000000000  3  4 10  7  9 10
       0.000000000000  3  4 10  8  9 10
       0.000000410653  3  5  9  1  4 10
       0.000000738384  3  5  9  1  5  9
      -0.000000111616  3  5  9  2  4 10
       0.000000000000  3  5  9  2  5  9
      -0.000000132719  3  5  9  3  4 10
      -0.000000445946  3  5  9  3  5  9
       0.000000446420  3  5  9  4  5  6
       0.000000232972  3  5  9  4  5  7
      -0.000000240391  3  5  9  4  5  8
      -0.000000165080  3  5  9  6  9 10
       0.000000000000  3  5  9  7  9 10
       0.000000000000  3  5  9  8  9 10
      -0.000147606945  4  5  6  1  4 10
       0.000147606945  4  5  6  1  5  9
       0.000000427077  4  5  6  2  4 10
      -0.000000427077  4  5  6  2  5  9
      -0.000000446420  4  5  6  3  4 10
       0.000000446420  4  5  6  3  5  9
       0.000232754152  4  5  6  4  5  6
       0.000000914947  4  5  6  4  5  7
       0.000001567751  4  5  6  4  5  8
       0.000014611142  4  5  6  6  9 10
      -0.000002267466  4  5  6  7  9 10
      -0.000001680505  4  5  6  8  9 10
       0.000000277827  4  5  7  1  4 10
      -0.000000277827  4  5  7  1  5  9
       0.000000729479  4  5  7  2  4 10
      -0.000000729479  4  5  7  2  5  9
      -0.000000232972  4  5  7  3  4 10
       0.000000232972  4  5  7  3  5  9
       0.000000914947  4  5  7  4  5  6
      -0.000001408933  4  5  7  4  5  7
      -0.000000686179  4  5  7  4  5  8
      -0.000001657397  4  5  7  6  9 10
       0.000000372269  4  5  7  7  9 10
       0.000000185482  4  5  7  8  9 10
      -0.000000312583  4  5  8  1  4 10
       0.000000312583  4  5  8  1  5  9
       0.000000646632  4  5  8  2  4 10
      -0.000000646632  4  5  8  2  5  9
       0.000000240391  4  5  8  3  4 10
      -0.000000240391  4  5  8  3  5  9
       0.000001567751  4  5  8  4  5  6
      -0.000000686179  4  5  8  4  5  7
      -0.000001411401  4  5  8  4  5  8
      -0.000001221395  4  5  8  6  9 10
       0.000000181695  4  5  8  7  9 10
       0.000000109761  4  5  8  8  9 10
      -0.000003459812  6  9 10  1  4 10
       0.000003459812  6  9 10  1  5  9
       0.000000205796  6  9 10  2  4 10
      -0.000000205796  6  9 10  2  5  9
       0.000000165080  6  9 10  3  4 10
      -0.000000165080  6  9 10  3  5  9
       0.000014611142  6  9 10  4  5  6
      -0.000001657397  6  9 10  4  5  7
      -0.000001221395  6  9 10  4  5  8
      -0.000011633293  6  9 10  6  9 10
       0.000001821521  6  9 10  7  9 10
       0.000000743787  6  9 10  8  9 10
       0.000000565133  7  9 10  1  4 10
      -0.000000565133  7  9 10  1  5  9
       0.000000000000  7  9 10  2  4 10
       0.000000000000  7  9 10  2  5  9
       0.000000000000  7  9 10  3  4 10
       0.000000000000  7  9 10  3  5  9
      -0.000002267466  7  9 10  4  5  6
       0.000000372269  7  9 10  4  5  7
       0.000000181695  7  9 10  4  5  8
       0.000001821521  7  9 10  6  9 10
      -0.000000444595  7  9 10  7  9 10
      -0.000000183926  7  9 10  8  9 10
       0.000000631814  8  9 10  1  4 10
      -0.000000631814  8  9 10  1  5  9
       0.000000000000  8  9 10  2  4 10
       0.000000000000  8  9 10  2  5  9
       0.000000000000  8  9 10  3  4 10
       0.000000000000  8  9 10  3  5  9
      -0.000001680505  8  9 10  4  5  6
       0.000000185482  8  9 10  4  5  7
       0.000000109761  8  9 10  4  5  8
       0.000000743787  8  9 10  6  9 10
      -0.000000183926  8  9 10  7  9 10
       0.000000000000  8  9 10  8  9 10
 /EOF
 !FCI STATE  1.1 Dipole moment          0.00000000     0.00000000     0.00000000
 Dipole moment /Debye                   0.00000000     0.00000000     0.00000000


 **********************************************************************************************************************************
 DATASETS  * FILE   NREC   LENGTH (MB)   RECORD NAMES
              1      19       29.94       500      700      610      900      950      970     1000      129      960     1100   
                                          VAR     GEOM    BASINP   SYMINP    ZMAT    AOBASIS   BASIS     P2S    ABASIS      S 
                                         1400     1410     1200     1210     1080     1600     1650     1300     1700   
                                           T        V       H0       H01     AOSYM     SMH    MOLCAS    ERIS     OPER   

              3       5       14.77       500      610      700     1000     2100   
                                          VAR    BASINP    GEOM     BASIS     RHF  

 PROGRAMS   *        TOTAL       FCI       INT   RESTART
 CPU TIMES  *         0.40      0.06      0.16      0.01
 REAL TIME  *         0.60 SEC
 DISK USED  *        49.42 MB
 **********************************************************************************************************************************
 Molecular orbitals read from record     2100.3  Type=RHF/CANONICAL (state 1.1)
 Occupation numbers read from record     2100.3  Type=RHF/RHF (state 1.1)
 Orbital energies read from record       2100.3  Type=RHF/CANONICAL (state 1.1)
 Redundancy group numbers read from rec  2100.3  Type=RHF/RHF (state 1.1)

 FCI/STO-3G energy=    -14.667372039476

             FCI
    -14.66737204
 **********************************************************************************************************************************
 Molpro calculation terminated
